 Entering Gaussian System, Link 0=g09
 Input=P44_s4.com
 Output=P44_s4.log
 Initial command:
 /home/ggroenh/g09/l1.exe /home/ggroenh/EET/P44/trans/conf_B/sym/Gau-7783.inp -scrdir=/home/ggroenh/EET/P44/trans/conf_B/sym/
 Entering Link 1 = /home/ggroenh/g09/l1.exe PID=      7784.
  
 Copyright (c) 1988,1990,1992,1993,1995,1998,2003,2009, Gaussian, Inc.
                  All Rights Reserved.
  
 This is part of the Gaussian(R) 09 program.  It is based on
 the Gaussian(R) 03 system (copyright 2003, Gaussian, Inc.),
 the Gaussian(R) 98 system (copyright 1998, Gaussian, Inc.),
 the Gaussian(R) 94 system (copyright 1995, Gaussian, Inc.),
 the Gaussian 92(TM) system (copyright 1992, Gaussian, Inc.),
 the Gaussian 90(TM) system (copyright 1990, Gaussian, Inc.),
 the Gaussian 88(TM) system (copyright 1988, Gaussian, Inc.),
 the Gaussian 86(TM) system (copyright 1986, Carnegie Mellon
 University), and the Gaussian 82(TM) system (copyright 1983,
 Carnegie Mellon University). Gaussian is a federally registered
 trademark of Gaussian, Inc.
  
 This software contains proprietary and confidential information,
 including trade secrets, belonging to Gaussian, Inc.
  
 This software is provided under written license and may be
 used, copied, transmitted, or stored only in accord with that
 written license.
  
 The following legend is applicable only to US Government
 contracts under FAR:
  
                    RESTRICTED RIGHTS LEGEND
  
 Use, reproduction and disclosure by the US Government is
 subject to restrictions as set forth in subparagraphs (a)
 and (c) of the Commercial Computer Software - Restricted
 Rights clause in FAR 52.227-19.
  
 Gaussian, Inc.
 340 Quinnipiac St., Bldg. 40, Wallingford CT 06492
  
  
 ---------------------------------------------------------------
 Warning -- This program may not be used in any manner that
 competes with the business of Gaussian, Inc. or will provide
 assistance to any competitor of Gaussian, Inc.  The licensee
 of this program is prohibited from giving any competitor of
 Gaussian, Inc. access to this program.  By using this program,
 the user acknowledges that Gaussian, Inc. is engaged in the
 business of creating and licensing software in the field of
 computational chemistry and represents and warrants to the
 licensee that it is not a competitor of Gaussian, Inc. and that
 it will not use this program in any manner prohibited above.
 ---------------------------------------------------------------
  

 Cite this work as:
 Gaussian 09, Revision A.02,
 M. J. Frisch, G. W. Trucks, H. B. Schlegel, G. E. Scuseria, 
 M. A. Robb, J. R. Cheeseman, G. Scalmani, V. Barone, B. Mennucci, 
 G. A. Petersson, H. Nakatsuji, M. Caricato, X. Li, H. P. Hratchian, 
 A. F. Izmaylov, J. Bloino, G. Zheng, J. L. Sonnenberg, M. Hada, 
 M. Ehara, K. Toyota, R. Fukuda, J. Hasegawa, M. Ishida, T. Nakajima, 
 Y. Honda, O. Kitao, H. Nakai, T. Vreven, J. A. Montgomery, Jr., 
 J. E. Peralta, F. Ogliaro, M. Bearpark, J. J. Heyd, E. Brothers, 
 K. N. Kudin, V. N. Staroverov, R. Kobayashi, J. Normand, 
 K. Raghavachari, A. Rendell, J. C. Burant, S. S. Iyengar, J. Tomasi, 
 M. Cossi, N. Rega, J. M. Millam, M. Klene, J. E. Knox, J. B. Cross, 
 V. Bakken, C. Adamo, J. Jaramillo, R. Gomperts, R. E. Stratmann, 
 O. Yazyev, A. J. Austin, R. Cammi, C. Pomelli, J. W. Ochterski, 
 R. L. Martin, K. Morokuma, V. G. Zakrzewski, G. A. Voth, 
 P. Salvador, J. J. Dannenberg, S. Dapprich, A. D. Daniels, 
 O. Farkas, J. B. Foresman, J. V. Ortiz, J. Cioslowski, 
 and D. J. Fox, Gaussian, Inc., Wallingford CT, 2009.
 
 ******************************************
 Gaussian 09:  EM64L-G09RevA.02 11-Jun-2009
                 3-Nov-2011 
 ******************************************
 %chk=P44_CAS.chk
 %mem=400MW
 %nprocshared=8
 Will use up to    8 processors via shared memory.
 ----------------------------------------------------------------------
 # casscf(14,12,nroot=4,stateaverage)/6-31g(d) geom=(check,connectivity
 ) test guess=(read,alter) iop(5/7=512)
 ----------------------------------------------------------------------
 1/29=2,38=1,57=2/1;
 2/12=2,40=1/2;
 3/5=1,6=6,7=1,14=-4,16=1,25=1,32=1,116=101/1,2,3;
 4/5=1,8=1,17=14,18=12/1,5;
 5/5=2,7=512,17=10000000,28=4,38=6/10;
 6/7=2,8=2,9=2,10=2,28=1/1;
 99/5=1,9=1/99;
 -------------------
 Title Card Required
 -------------------
 Z-Matrix taken from the checkpoint file:
 P44_CAS.chk
 Charge =  0 Multiplicity = 1
 C,0,0.0571933,-1.40958699,-1.68474899
 C,0,1.21463925,-0.64423743,-1.75183502
 C,0,1.15968496,0.73915364,-1.74589404
 C,0,-0.0571933,1.40958699,-1.68474899
 C,0,-1.21463925,0.64423743,-1.75183502
 C,0,-1.15968496,-0.73915364,-1.74589404
 H,0,2.17488764,-1.13106861,-1.75604503
 H,0,2.07872365,1.2991695,-1.74283806
 H,0,-2.17488764,1.13106861,-1.75604503
 H,0,-2.07872365,-1.2991695,-1.74283806
 C,0,-0.10011535,2.9093672,-1.47069405
 H,0,-1.12244692,3.26523847,-1.56641804
 H,0,0.46754224,3.39817349,-2.25839606
 C,0,0.48895622,3.36120349,-0.11657806
 H,0,0.69652954,4.42604223,-0.18832708
 H,0,1.44746263,2.87944631,0.03503893
 C,0,-0.37914499,3.17626858,1.14083395
 C,0,-0.86967372,1.76846519,1.50292098
 C,0,0.10011535,-2.9093672,-1.47069405
 C,0,-0.48895622,-3.36120349,-0.11657806
 C,0,0.37914499,-3.17626858,1.14083395
 H,0,1.26356838,-3.80261045,1.04877302
 H,0,-0.18527832,-3.56947565,1.98043704
 C,0,0.86967372,-1.76846519,1.50292098
 H,0,1.56738637,-1.38228783,0.77536699
 H,0,1.43081085,-1.81876264,2.43470799
 C,0,-0.21653482,-0.74058961,1.726296
 C,0,0.21653482,0.74058961,1.726296
 O,0,1.35553534,1.00615445,1.95448696
 O,0,-1.35553534,-1.00615445,1.95448696
 H,0,-1.26356838,3.80261045,1.04877302
 H,0,0.18527832,3.56947565,1.98043704
 H,0,-1.43081085,1.81876264,2.43470799
 H,0,-1.56738637,1.38228783,0.77536699
 H,0,-0.69652954,-4.42604223,-0.18832708
 H,0,-1.44746263,-2.87944631,0.03503893
 H,0,-0.46754224,-3.39817349,-2.25839606
 H,0,1.12244692,-3.26523847,-1.56641804
                          Input orientation:                          
 ---------------------------------------------------------------------
 Center     Atomic      Atomic             Coordinates (Angstroms)
 Number     Number       Type             X           Y           Z
 ---------------------------------------------------------------------
      1          6           0        0.057193   -1.409587   -1.684749
      2          6           0        1.214639   -0.644237   -1.751835
      3          6           0        1.159685    0.739154   -1.745894
      4          6           0       -0.057193    1.409587   -1.684749
      5          6           0       -1.214639    0.644237   -1.751835
      6          6           0       -1.159685   -0.739154   -1.745894
      7          1           0        2.174888   -1.131069   -1.756045
      8          1           0        2.078724    1.299170   -1.742838
      9          1           0       -2.174888    1.131069   -1.756045
     10          1           0       -2.078724   -1.299169   -1.742838
     11          6           0       -0.100115    2.909367   -1.470694
     12          1           0       -1.122447    3.265238   -1.566418
     13          1           0        0.467542    3.398173   -2.258396
     14          6           0        0.488956    3.361203   -0.116578
     15          1           0        0.696530    4.426042   -0.188327
     16          1           0        1.447463    2.879446    0.035039
     17          6           0       -0.379145    3.176269    1.140834
     18          6           0       -0.869674    1.768465    1.502921
     19          6           0        0.100115   -2.909367   -1.470694
     20          6           0       -0.488956   -3.361203   -0.116578
     21          6           0        0.379145   -3.176269    1.140834
     22          1           0        1.263568   -3.802610    1.048773
     23          1           0       -0.185278   -3.569476    1.980437
     24          6           0        0.869674   -1.768465    1.502921
     25          1           0        1.567386   -1.382288    0.775367
     26          1           0        1.430811   -1.818763    2.434708
     27          6           0       -0.216535   -0.740590    1.726296
     28          6           0        0.216535    0.740590    1.726296
     29          8           0        1.355535    1.006154    1.954487
     30          8           0       -1.355535   -1.006154    1.954487
     31          1           0       -1.263568    3.802610    1.048773
     32          1           0        0.185278    3.569476    1.980437
     33          1           0       -1.430811    1.818763    2.434708
     34          1           0       -1.567386    1.382288    0.775367
     35          1           0       -0.696530   -4.426042   -0.188327
     36          1           0       -1.447463   -2.879446    0.035039
     37          1           0       -0.467542   -3.398173   -2.258396
     38          1           0        1.122447   -3.265238   -1.566418
 ---------------------------------------------------------------------
                    Distance matrix (angstroms):
                    1          2          3          4          5
     1  C    0.000000
     2  C    1.389223   0.000000
     3  C    2.415846   1.384495   0.000000
     4  C    2.821494   2.416662   1.390688   0.000000
     5  C    2.416662   2.749829   2.376228   1.389223   0.000000
     6  C    1.390688   2.376228   2.750431   2.415846   1.384495
     7  H    2.137121   1.076615   2.128020   3.382632   3.826307
     8  H    3.380432   2.126865   1.076225   2.139558   3.357865
     9  H    3.382632   3.826307   3.357540   2.137121   1.076615
    10  H    2.139558   3.357865   3.826495   3.380432   2.126865
    11  C    4.327116   3.799438   2.524413   1.515587   2.540082
    12  H    4.822815   4.558547   3.409024   2.142944   2.629168
    13  H    4.859220   4.141961   2.795015   2.135157   3.266574
    14  C    5.040439   4.386826   3.159065   2.562469   3.599751
    15  H    6.058267   5.331110   4.029104   3.450562   4.516544
    16  H    4.825591   3.957710   2.799177   2.717011   3.908435
    17  C    5.404108   5.050143   4.079305   3.347945   3.934052
    18  C    4.595687   4.556197   3.966431   3.309102   3.460683
    19  C    1.515587   2.540082   3.809216   4.327116   3.799438
    20  C    2.562469   3.599751   4.710161   5.040439   4.386826
    21  C    3.347945   3.934052   4.926761   5.404108   5.050143
    22  H    3.828060   4.221507   5.333721   6.031878   5.810282
    23  H    4.261162   4.944355   5.853098   6.183936   5.722309
    24  C    3.309102   3.460683   4.114251   4.595687   4.556197
    25  H    2.886797   2.656294   3.320164   4.060295   4.270038
    26  H    4.361671   4.353548   4.908552   5.441169   5.530996
    27  C    3.486791   3.762305   4.017428   4.035329   3.874449
    28  C    4.035329   3.874449   3.598005   3.486791   3.762305
    29  O    4.556922   4.059614   3.715167   3.924614   4.524777
    30  O    3.924614   4.524777   4.802630   4.556922   4.059614
    31  H    6.031878   5.810282   4.802821   3.828060   4.221507
    32  H    6.183936   5.722309   4.779721   4.261162   4.944355
    33  H    5.441169   5.530996   5.035242   4.361671   4.353548
    34  H    4.060295   4.270038   3.769257   2.886797   2.656294
    35  H    3.450562   4.516544   5.705330   6.058267   5.331110
    36  H    2.717011   3.908435   4.802417   4.825591   3.957710
    37  H    2.135157   3.266574   4.475266   4.859220   4.141961
    38  H    2.142944   2.629168   4.008585   4.822815   4.558547
                    6          7          8          9         10
     6  C    0.000000
     7  H    3.357540   0.000000
     8  H    3.826495   2.432176   0.000000
     9  H    2.128020   4.902837   4.256952   0.000000
    10  H    1.076225   4.256952   4.902625   2.432176   0.000000
    11  C    3.809216   4.645663   2.722892   2.747444   4.658405
    12  H    4.008585   5.498717   3.760857   2.387105   4.666841
    13  H    4.475266   4.866356   2.695834   3.517749   5.367895
    14  C    4.710161   5.070574   3.069864   3.841538   5.563882
    15  H    5.705330   5.960265   3.755569   4.643235   6.549548
    16  H    4.802417   4.452118   2.461018   4.402979   5.749406
    17  C    4.926761   5.785166   4.228497   3.974851   5.588710
    18  C    4.114251   5.319540   4.410016   3.568013   4.626785
    19  C    2.524413   2.747444   4.658405   4.645663   2.722892
    20  C    3.159065   3.841538   5.563882   5.070574   3.069864
    21  C    4.079305   3.974851   5.588710   5.785166   4.228497
    22  H    4.802821   3.979277   5.872455   6.635599   5.023069
    23  H    4.779721   5.047525   6.533926   6.325738   4.754177
    24  C    3.966431   3.568013   4.626785   5.319540   4.410016
    25  H    3.769257   2.615381   3.713898   5.170070   4.431973
    26  H    5.035242   4.311494   5.252921   6.266177   5.480757
    27  C    3.598005   4.242414   4.632895   4.411910   3.976764
    28  C    4.017428   4.411910   3.976764   4.242414   4.632895
    29  O    4.802630   4.359714   3.778766   5.123235   5.547870
    30  O    3.715167   5.123235   5.547870   4.359714   3.778766
    31  H    5.333721   6.635599   5.023069   3.979277   5.872455
    32  H    5.853098   6.325738   4.754177   5.047525   6.533926
    33  H    4.908552   6.266177   5.480757   4.311494   5.252921
    34  H    3.320164   5.170070   4.431973   2.615381   3.713898
    35  H    4.029104   4.643235   6.549548   5.960265   3.755569
    36  H    2.799177   4.402979   5.749406   4.452118   2.461018
    37  H    2.795015   3.517749   5.367895   4.866356   2.695834
    38  H    3.409024   2.387105   4.666841   5.498717   3.760857
                   11         12         13         14         15
    11  C    0.000000
    12  H    1.086724   0.000000
    13  H    1.087033   1.739129   0.000000
    14  C    1.544277   2.169762   2.142244   0.000000
    15  H    2.139956   2.560327   2.322528   1.087252   0.000000
    16  H    2.159427   3.052529   2.547384   1.083426   1.733710
    17  C    2.639919   2.808848   3.510112   1.539118   2.117942
    18  C    3.276624   3.424188   4.311798   2.646784   3.517958
    19  C    5.822178   6.295203   6.367146   6.426888   7.470502
    20  C    6.426888   6.812715   7.154820   6.793163   7.877291
    21  C    6.639633   7.146818   7.401748   6.658204   7.724152
    22  H    7.297807   7.904858   7.963813   7.299198   8.340424
    23  H    7.341183   7.757047   8.181810   7.272302   8.331232
    24  C    5.627166   6.223147   6.403387   5.392701   6.423568
    25  H    5.122856   5.858213   5.767685   4.945633   5.951789
    26  H    6.320689   6.955228   7.083046   5.850487   6.813007
    27  C    4.853502   5.263962   5.785766   4.551770   5.585119
    28  C    3.876159   4.359896   4.796199   3.215278   4.180758
    29  O    4.180072   4.862163   4.925309   3.253694   4.089202
    30  O    5.351566   5.540388   6.361611   5.173517   6.189619
    31  H    2.915342   2.673557   3.754688   2.150401   2.400222
    32  H    3.525266   3.792478   4.251673   2.129101   2.387179
    33  H    4.267591   4.265723   5.303160   3.545940   4.266591
    34  H    3.087012   3.037669   4.172343   2.990020   3.913881
    35  H    7.470502   7.825365   8.176711   7.877291   8.961027
    36  H    6.131308   6.358258   6.952381   6.535933   7.616873
    37  H    6.367146   6.731181   6.860373   7.154820   8.176711
    38  H    6.295203   6.905554   6.731181   6.812715   7.825365
                   16         17         18         19         20
    16  H    0.000000
    17  C    2.155779   0.000000
    18  C    2.959405   1.534156   0.000000
    19  C    6.131308   6.639633   5.627166   0.000000
    20  C    6.535933   6.658204   5.392701   1.544277   0.000000
    21  C    6.247861   6.397635   5.112832   2.639919   1.539118
    22  H    6.761017   7.170198   5.982797   2.915342   2.150401
    23  H    6.931018   6.800558   5.402780   3.525266   2.129101
    24  C    4.908319   5.112832   3.941473   3.276624   2.646784
    25  H    4.327221   4.970210   4.049178   3.087012   2.990020
    26  H    5.275591   5.468125   4.362185   4.267591   3.545940
    27  C    4.328267   3.963709   2.602276   3.876159   3.215278
    28  C    2.991695   2.574904   1.512043   4.853502   4.551770
    29  O    2.683646   2.894917   2.395117   5.351566   5.173517
    30  O    5.161296   4.371273   2.852803   4.180072   3.253694
    31  H    3.038022   1.087651   2.121120   7.297807   7.299198
    32  H    2.419468   1.085412   2.141164   7.341183   7.272302
    33  H    3.894601   2.150101   1.088867   6.320689   5.850487
    34  H    3.446576   2.182625   1.079477   5.122856   4.945633
    35  H    7.616873   7.724152   6.423568   2.139956   1.087252
    36  H    6.445575   6.247861   4.908319   2.159427   1.083426
    37  H    6.952381   7.401748   6.403387   1.087033   2.142244
    38  H    6.358258   7.146818   6.223147   1.086724   2.169762
                   21         22         23         24         25
    21  C    0.000000
    22  H    1.087651   0.000000
    23  H    1.085412   1.738248   0.000000
    24  C    1.534156   2.121120   2.141164   0.000000
    25  H    2.182625   2.454591   3.050872   1.079477   0.000000
    26  H    2.150101   2.425786   2.425511   1.088867   1.721213
    27  C    2.574904   3.467811   2.840451   1.512043   2.120947
    28  C    3.963709   4.711261   4.336208   2.602276   2.689921
    29  O    4.371273   4.894180   4.828164   2.852803   2.672052
    30  O    2.894917   3.937028   2.817941   2.395117   3.174157
    31  H    7.170198   8.014100   7.508553   5.982797   5.913732
    32  H    6.800558   7.508553   7.148562   5.402780   5.280377
    33  H    5.468125   6.385948   5.548948   4.362185   4.689277
    34  H    4.970210   5.913732   5.280377   4.049178   4.179674
    35  H    2.117942   2.400222   2.387179   3.517958   3.913881
    36  H    2.155779   3.038022   2.419468   2.959405   3.446576
    37  H    3.510112   3.754688   4.251673   4.311798   4.172343
    38  H    2.808848   2.673557   3.792478   3.424188   3.037669
                   26         27         28         29         30
    26  H    0.000000
    27  C    2.092380   0.000000
    28  C    2.920034   1.543192   0.000000
    29  O    2.866432   2.361057   1.191603   0.000000
    30  O    2.941882   1.191603   2.361057   3.376284   0.000000
    31  H    6.385948   4.711261   3.467811   3.937028   4.894180
    32  H    5.548948   4.336208   2.840451   2.817941   4.828164
    33  H    4.628225   2.920034   2.092380   2.941882   2.866432
    34  H    4.689277   2.689921   2.120947   3.174157   2.672052
    35  H    4.266591   4.180758   5.585119   6.189619   4.089202
    36  H    3.894601   2.991695   4.328267   5.161296   2.683646
    37  H    5.303160   4.796199   5.785766   6.361611   4.925309
    38  H    4.265723   4.359896   5.263962   5.540388   4.862163
                   31         32         33         34         35
    31  H    0.000000
    32  H    1.738248   0.000000
    33  H    2.425786   2.425511   0.000000
    34  H    2.454591   3.050872   1.721213   0.000000
    35  H    8.340424   8.331232   6.813007   5.951789   0.000000
    36  H    6.761017   6.931018   5.275591   4.327221   1.733710
    37  H    7.963813   8.181810   7.083046   5.767685   2.322528
    38  H    7.904858   7.757047   6.955228   5.858213   2.560327
                   36         37         38
    36  H    0.000000
    37  H    2.547384   0.000000
    38  H    3.052529   1.739129   0.000000
 Stoichiometry    C16H20O2
 Framework group  C2[X(C16H20O2)]
 Deg. of freedom    55
 Full point group                 C2      NOp   2
 Largest Abelian subgroup         C2      NOp   2
 Largest concise Abelian subgroup C2      NOp   2
                         Standard orientation:                         
 ---------------------------------------------------------------------
 Center     Atomic      Atomic             Coordinates (Angstroms)
 Number     Number       Type             X           Y           Z
 ---------------------------------------------------------------------
      1          6           0        0.694369   -1.228030   -1.684749
      2          6           0        1.374787   -0.018703   -1.751835
      3          6           0        0.694369    1.187042   -1.745894
      4          6           0       -0.694369    1.228030   -1.684749
      5          6           0       -1.374787    0.018703   -1.751835
      6          6           0       -0.694369   -1.187042   -1.745894
      7          1           0        2.451381   -0.013489   -1.756045
      8          1           0        1.256407    2.104845   -1.742838
      9          1           0       -2.451381    0.013489   -1.756045
     10          1           0       -1.256407   -2.104845   -1.742838
     11          6           0       -1.417214    2.542822   -1.470694
     12          1           0       -2.489261    2.392749   -1.566418
     13          1           0       -1.135300    3.236862   -2.258396
     14          6           0       -1.099370    3.213744   -0.116578
     15          1           0       -1.400792    4.255912   -0.188327
     16          1           0       -0.026643    3.222677    0.035039
     17          6           0       -1.787315    2.652912    1.140834
     18          6           0       -1.581080    1.176431    1.502921
     19          6           0        1.417214   -2.542822   -1.470694
     20          6           0        1.099370   -3.213744   -0.116578
     21          6           0        1.787315   -2.652912    1.140834
     22          1           0        2.860133   -2.806438    1.048773
     23          1           0        1.464636   -3.260418    1.980437
     24          6           0        1.581080   -1.176431    1.502921
     25          1           0        2.025557   -0.514331    0.775367
     26          1           0        2.103296   -0.965020    2.434708
     27          6           0        0.145427   -0.757767    1.726296
     28          6           0       -0.145427    0.757767    1.726296
     29          8           0        0.746734    1.514005    1.954487
     30          8           0       -0.746734   -1.514005    1.954487
     31          1           0       -2.860133    2.806438    1.048773
     32          1           0       -1.464636    3.260418    1.980437
     33          1           0       -2.103296    0.965020    2.434708
     34          1           0       -2.025557    0.514331    0.775367
     35          1           0        1.400792   -4.255912   -0.188327
     36          1           0        0.026643   -3.222677    0.035039
     37          1           0        1.135300   -3.236862   -2.258396
     38          1           0        2.489261   -2.392749   -1.566418
 ---------------------------------------------------------------------
 Rotational constants (GHZ):      0.6387323      0.3966497      0.3012929
 Standard basis: 6-31G(d) (6D, 7F)
 There are   155 symmetry adapted basis functions of A   symmetry.
 There are   155 symmetry adapted basis functions of B   symmetry.
 Integral buffers will be    131072 words long.
 Regular integral format.
 Two-electron integral symmetry is turned off.
   310 basis functions,   584 primitive gaussians,   310 cartesian basis functions
    66 alpha electrons       66 beta electrons
       nuclear repulsion energy      1385.4088526127 Hartrees.
 NAtoms=   38 NActive=   38 NUniq=   19 SFac= 3.00D+00 NAtFMM=   80 NAOKFM=F Big=F
 One-electron integrals computed using PRISM.
 The smallest eigenvalue of the overlap matrix is  3.952D-04
 NBasis=   310 RedAO= F  NBF=   155   155
 NBsUse=   310 1.00D-04 NBFU=   155   155
 Initial guess read from the checkpoint file:  P44_CAS.chk
 B after Tr=     0.000000    0.000000    0.000000
         Rot=    1.000000    0.000000    0.000000    0.000000 Ang=   0.00 deg.
 Pairs of Alpha orbitals switched:
   55  62
   54  61
   52  60
   70  72
   71  97
 Initial guess orbital symmetries:
       Occupied  (A) (B) (A) (B) (B) (A) (B) (A) (A) (B) (A) (B)
                 (B) (A) (B) (A) (B) (A) (A) (B) (A) (B) (A) (B)
                 (A) (B) (B) (A) (B) (A) (A) (B) (A) (A) (B) (A)
                 (A) (B) (B) (A) (B) (B) (A) (B) (A) (B) (A) (B)
                 (A) (B) (B) (A) (A) (B) (A) (A) (A) (B) (B) (A)
                 (B) (B) (A) (A) (B) (B)
       Virtual   (A) (A) (A) (B) (B) (B) (A) (B) (A) (B) (A) (B)
                 (B) (A) (B) (A) (A) (A) (B) (B) (B) (A) (B) (B)
                 (A) (A) (A) (B) (B) (A) (A) (B) (A) (B) (A) (B)
                 (A) (B) (A) (B) (A) (B) (A) (B) (B) (A) (B) (A)
                 (A) (A) (B) (A) (B) (B) (A) (B) (A) (B) (B) (A)
                 (A) (B) (A) (B) (A) (B) (A) (A) (B) (A) (A) (B)
                 (A) (B) (B) (A) (B) (A) (B) (A) (B) (A) (B) (B)
                 (A) (B) (B) (A) (B) (B) (A) (A) (B) (A) (A) (B)
                 (A) (B) (A) (B) (A) (B) (A) (A) (B) (B) (A) (B)
                 (A) (B) (B) (A) (B) (A) (A) (B) (B) (A) (A) (A)
                 (B) (B) (B) (A) (B) (A) (B) (A) (A) (B) (A) (A)
                 (A) (A) (B) (A) (B) (B) (B) (A) (A) (B) (A) (B)
                 (A) (B) (B) (A) (A) (B) (A) (B) (A) (B) (A) (A)
                 (B) (B) (B) (A) (B) (B) (A) (A) (B) (B) (A) (A)
                 (B) (B) (A) (B) (A) (A) (B) (A) (B) (A) (B) (A)
                 (A) (B) (B) (A) (B) (B) (B) (A) (A) (B) (B) (A)
                 (A) (B) (B) (A) (A) (B) (B) (B) (A) (B) (A) (B)
                 (A) (A) (B) (A) (B) (A) (B) (A) (A) (B) (B) (A)
                 (A) (B) (A) (B) (A) (B) (A) (A) (B) (B) (A) (B)
                 (A) (B) (A) (B) (A) (B) (B) (A) (A) (B) (A) (B)
                 (A) (A) (B) (B)
 In MySME. ITyp,IWrit    1    0
 In MySME. ITyp,IWrit    1    0

 Total number of active electrons   14
 Total number of active orbitals    12
 Number of Alpha electrons           7
 Number of Beta electrons            7
 IEnd,MeIgot for IE vector         7 419430393
  Number of Alpha strings                 792
  Number of Beta  strings                 792
 Number of configurations              314028
 SME calculated on fly
 RWF file will be        16          Words long
 Len28=          16 LenMCI=          30.
 Enter MCSCF program.
 NO. OF ORBITALS =310     NO. OF CORE-ORBITALS = 59
 NO. OF VALENCE-ORBITALS = 12      NO. OF VIRTUAL-ORBITALS =239
 USED ACCURACY IN CHECKING CONVERGENCE =  1.00D-08
  InCore calculation needs more space:              1355386495
  In this calculation the integrals will be calculated in every iteration
  and Contracted with The Density Matrices
 Do   4 iterations with Incremental Fock Matrices and then one Full.
 IBUJAK length=                 7616390
 Symmetry not used in FoFDir.
 MinBra= 0 MaxBra= 2 Meth= 1.
 IRaf=     -80 NMat=  79 IRICut=       1 DoRegI=T DoRafI=F ISym2E= 0 JSym2E=0.
 In Davids. NSec=    314028
 IMaxHF,MaxMI,MSekIn,IFactt,WhenSc,nroot    5  200    8    2    2    4
 DiagDN has N=   500 LTot=  1530 but NE2=   249 cannot use DSYEVD.
 Store on disk first   8 roots
          (  1)     Eigenvalue  -767.301792269    
 (       1) 0.9764792 (     121)-0.0887432 (      36)-0.0785042 (      10)-0.0757822 (       6)-0.0736898 (      45)-0.0719266 (   32131)-0.0656543
 (      39)-0.0451052 (      44) 0.0439309 (      32) 0.0436439 (      31)-0.0373084 (      40) 0.0325794 (       9)-0.0302632 (     253)-0.0190348
 (      43)-0.0175105 (       8)-0.0161386 (      67) 0.0153500 (   32005)-0.0143528 (      24)-0.0133753 (      25) 0.0103377 (       5)-0.0080741
 (   41906) 0.0079715 (  106954) 0.0078285 (   31885)-0.0074123 (   32134) 0.0068918 (    8128)-0.0060954 (   32139) 0.0060531 (      38) 0.0059556
 (  106975) 0.0056893 (   36857)-0.0053776 (    8026)-0.0052017 (   32389) 0.0050367 (   32393)-0.0048365 (      79)-0.0043856 (   31903)-0.0043205
 (     298) 0.0043145 (   31887) 0.0041666 (   31881) 0.0041508 (   31880)-0.0040059 (   31886) 0.0037199 (   33412) 0.0036949 (     232)-0.0036551
 (   32662) 0.0036350 (   34192) 0.0035975 (   33154)-0.0033993 (   13367) 0.0032389 (   32388) 0.0029238 (    1597) 0.0029037 (    8131) 0.0026757
 (   36047)-0.0025903 (
          (  2)     Eigenvalue  -767.115881141    
 (     232) 0.9647109 (     277)-0.1162533 (     674) 0.0771409 (     382) 0.0757218 (   32005)-0.0745445 (     712) 0.0725234 (     354) 0.0721882
 (    8386) 0.0672628 (    1082)-0.0634805 (     247)-0.0616523 (     254)-0.0388011 (    1597) 0.0346952 (     706) 0.0327495 (     360) 0.0311024
 (     386)-0.0307786 (     670)-0.0305071 (     711)-0.0300538 (     675)-0.0292613 (   41906)-0.0269203 (     669) 0.0265391 (   32131) 0.0263771
 (     359) 0.0259355 (     707)-0.0235701 (     387)-0.0230061 (     381) 0.0216217 (     355) 0.0211354 (  106954)-0.0185124 (    8128)-0.0177747
 (   32662)-0.0154545 (     710) 0.0124233 (     380) 0.0123112 (   31903) 0.0115795 (   32512) 0.0106637 (     243) 0.0104157 (  106975)-0.0095020
 (    8516) 0.0092813 (     358) 0.0084786 (    8008)-0.0082232 (    8026)-0.0071864 (     385)-0.0068847 (   32258) 0.0061501 (     353) 0.0060631
 (     308)-0.0053459 (    1712)-0.0052151 (     862)-0.0049727 (    8407)-0.0048781 (    8009) 0.0048456 (    8003)-0.0047766 (     304) 0.0046552
 (   10012)-0.0045452 (
          (  3)     Eigenvalue  -767.059231306    
 (       4) 0.5627479 (       7)-0.4813637 (      37)-0.4387224 (      29)-0.4236214 (      22)-0.1616837 (       2)-0.1113630 (    1662) 0.0692917
 (    1719) 0.0691919 (    1656) 0.0691501 (    1715)-0.0675038 (  107419) 0.0566586 (  107884)-0.0550579 (  107425) 0.0545745 (  107888) 0.0537501
 (      42)-0.0363179 (     123)-0.0348837 (      59)-0.0315532 (      34)-0.0265922 (     124) 0.0263165 (      58)-0.0236117 (   32386) 0.0221939
 (    1661)-0.0188294 (    1604) 0.0169776 (    1660) 0.0166194 (    1657) 0.0150842 (    1600)-0.0150570 (  107424)-0.0128112 (  107883) 0.0126658
 (  106961) 0.0125730 (  106957)-0.0123293 (  107423) 0.0123055 (    1713)-0.0120569 (    1714) 0.0118874 (     373) 0.0115305 (  107882)-0.0111358
 (     400)-0.0103595 (     725)-0.0097567 (   31879) 0.0096330 (      70)-0.0095141 (    8257) 0.0094479 (     688)-0.0090615 (    1655) 0.0085637
 (  107420) 0.0080440 (    1599) 0.0080281 (  106956) 0.0072210 (    1605) 0.0070763 (    1771) 0.0067890 (     122) 0.0067312 (    1718) 0.0065042
 (      13)-0.0059209 (
          (  4)     Eigenvalue  -767.026500191    
 (       2) 0.5815526 (       4) 0.4625660 (       7) 0.4119323 (      29) 0.3701255 (      37)-0.3252562 (      22)-0.1056697 (    1661)-0.0496921
 (      74)-0.0448025 (    1657) 0.0406979 (    1720) 0.0400294 (    1714) 0.0367564 (  107424)-0.0363831 (     122)-0.0328099 (  107889) 0.0293783
 (  107420) 0.0292301 (    1605) 0.0280180 (  107883) 0.0275657 (    1604)-0.0262245 (    1599) 0.0245170 (    1600) 0.0216463 (  106962) 0.0215219
 (    1718) 0.0204284 (  106961)-0.0196476 (    1892)-0.0192650 (  106956) 0.0189790 (      81)-0.0182158 (  107882) 0.0180636 (    1954)-0.0179189
 (      86) 0.0176144 (  106957) 0.0171146 (    1660)-0.0169549 (  107423)-0.0155458 (     123)-0.0152583 (   32132)-0.0151321 (  107887) 0.0150840
 (      34)-0.0148546 (      70) 0.0146325 (      75) 0.0142055 (  107418) 0.0137677 (      58)-0.0132259 (   31883) 0.0112928 (     400) 0.0107531
 (     373) 0.0106191 (      69)-0.0105750 (    1715) 0.0100508 (      42) 0.0098414 (    2557) 0.0095173 (      59) 0.0080717 (    1719)-0.0079536
 (   33671)-0.0079289 (
 Davidson Disk Diagonalization is being used:
 MVecIn=      8 MSekIn=    8 NVConv=    4 MConv=    4 WhenSc=  2 IFact=    2 FinIt=F
 NRoot=     8 Conv= 0.00D+00 MaxIt=      314028 Dim=      314028 Max sub=   200
 Iteration     1 internal iteration     1 dimension is     8
 Eigenvalues at current iteration:
 Root      1 :  -767.301792269263400
 Root      2 :  -767.115881141181800
 Root      3 :  -767.059231305651900
 Root      4 :  -767.026500190678100
 Root      5 :  -767.014336696770400
 Root      6 :  -766.998482729105300
 Root      7 :  -766.951683096584000
 Root      8 :  -766.947165615341200
 DEMax= 0.00D+00
 State    1 2nd order lowering   -0.641316880196E-05 norm 9.21D-05
 State    2 2nd order lowering   -0.663863851706E-05 norm 9.37D-05
 State    3 2nd order lowering   -0.123210990320E-04 norm 1.28D-04
 State    4 2nd order lowering   -0.860322485115E-05 norm 1.07D-04
 State    5 2nd order lowering   -0.873518078140E-05 norm 1.07D-04
 State    6 2nd order lowering   -0.759014010641E-05 norm 1.00D-04
 State    7 2nd order lowering   -0.155371957563E-04 norm 1.43D-04
 State    8 2nd order lowering   -0.173823162312E-04 norm 1.52D-04
 Iteration     2 internal iteration     2 dimension is    16
 Root      1 not converged, maximum delta is    0.023160792313301
 Root      2 not converged, maximum delta is    0.023527690816509
 Root      3 not converged, maximum delta is    0.034748655915457
 Root      4 not converged, maximum delta is    0.032966629419695
 Eigenvalues at current iteration:
 Root      1 :  -767.306208048456100   Change is   -0.004415779192755
 Root      2 :  -767.120554727584400   Change is   -0.004673586402532
 Root      3 :  -767.070204380340300   Change is   -0.010973074688422
 Root      4 :  -767.034027163127900   Change is   -0.007526972449796
 DEMax= 1.10D-02
 State    1 2nd order lowering   -0.347603861474E-06 norm 2.14D-05
 State    2 2nd order lowering   -0.477119013827E-06 norm 2.51D-05
 State    3 2nd order lowering   -0.854498177821E-06 norm 3.36D-05
 State    4 2nd order lowering   -0.593491959414E-06 norm 2.80D-05
 Iteration     3 internal iteration     3 dimension is    20
 Root      1 not converged, maximum delta is    0.002626989140741
 Root      2 not converged, maximum delta is    0.002793911540794
 Root      3 not converged, maximum delta is    0.007118983001806
 Root      4 not converged, maximum delta is    0.007569323325969
 Eigenvalues at current iteration:
 Root      1 :  -767.306392264143900   Change is   -0.000184215687796
 Root      2 :  -767.120833504878400   Change is   -0.000278777294056
 Root      3 :  -767.070768181597400   Change is   -0.000563801257044
 Root      4 :  -767.034425368697000   Change is   -0.000398205569127
 DEMax= 5.64D-04
 State    1 2nd order lowering   -0.404595534981E-07 norm 7.31D-06
 State    2 2nd order lowering   -0.837394158646E-07 norm 1.05D-05
 State    3 2nd order lowering   -0.123017785642E-06 norm 1.28D-05
 State    4 2nd order lowering   -0.953533181548E-07 norm 1.12D-05
 Iteration     4 internal iteration     4 dimension is    24
 Root      1 not converged, maximum delta is    0.001332455532000
 Root      2 not converged, maximum delta is    0.001344564311079
 Root      3 not converged, maximum delta is    0.002607924076744
 Root      4 not converged, maximum delta is    0.002993661520108
 Eigenvalues at current iteration:
 Root      1 :  -767.306414115227100   Change is   -0.000021851083147
 Root      2 :  -767.120883232990500   Change is   -0.000049728112117
 Root      3 :  -767.070839064848400   Change is   -0.000070883251055
 Root      4 :  -767.034485335779600   Change is   -0.000059967082507
 DEMax= 7.09D-05
 State    1 2nd order lowering   -0.943067501626E-08 norm 3.53D-06
 State    2 2nd order lowering   -0.269640153853E-07 norm 5.97D-06
 State    3 2nd order lowering   -0.247129411737E-07 norm 5.71D-06
 State    4 2nd order lowering   -0.258371454712E-07 norm 5.84D-06
 Iteration     5 internal iteration     5 dimension is    28
 Root      1 not converged, maximum delta is    0.000651501285018
 Root      2 not converged, maximum delta is    0.001324199203950
 Root      3 not converged, maximum delta is    0.000895476927865
 Root      4 not converged, maximum delta is    0.001028397076397
 Eigenvalues at current iteration:
 Root      1 :  -767.306419189093300   Change is   -0.000005073866191
 Root      2 :  -767.120898548778500   Change is   -0.000015315788005
 Root      3 :  -767.070851357423600   Change is   -0.000012292575207
 Root      4 :  -767.034499736709700   Change is   -0.000014400930127
 DEMax= 1.53D-05
 State    1 2nd order lowering   -0.345378283762E-08 norm 2.14D-06
 State    2 2nd order lowering   -0.111801873587E-07 norm 3.84D-06
 State    3 2nd order lowering   -0.622426947981E-08 norm 2.87D-06
 State    4 2nd order lowering   -0.853298120761E-08 norm 3.36D-06
 Iteration     6 internal iteration     6 dimension is    32
 Root      1 not converged, maximum delta is    0.000414886257607
 Root      2 not converged, maximum delta is    0.001313227773555
 Root      3 not converged, maximum delta is    0.000315290917559
 Root      4 not converged, maximum delta is    0.000530189451748
 Eigenvalues at current iteration:
 Root      1 :  -767.306420821109300   Change is   -0.000001632016051
 Root      2 :  -767.120904793406500   Change is   -0.000006244627912
 Root      3 :  -767.070854515182000   Change is   -0.000003157758329
 Root      4 :  -767.034504492501400   Change is   -0.000004755791679
 DEMax= 6.24D-06
 State    1 2nd order lowering   -0.109760785298E-08 norm 1.20D-06
 State    2 2nd order lowering   -0.573820198387E-08 norm 2.75D-06
 State    3 2nd order lowering   -0.243686174883E-08 norm 1.79D-06
 State    4 2nd order lowering   -0.368644399692E-08 norm 2.21D-06
 Iteration     7 internal iteration     7 dimension is    36
 Root      1 not converged, maximum delta is    0.000199948487171
 Root      2 not converged, maximum delta is    0.001113909352266
 Root      3 not converged, maximum delta is    0.000192067481772
 Root      4 not converged, maximum delta is    0.000316469089950
 Eigenvalues at current iteration:
 Root      1 :  -767.306421253917500   Change is   -0.000000432808179
 Root      2 :  -767.120907665782400   Change is   -0.000002872375944
 Root      3 :  -767.070855610641300   Change is   -0.000001095459311
 Root      4 :  -767.034506172852700   Change is   -0.000001680351374
 DEMax= 2.87D-06
 State    1 2nd order lowering   -0.310312494897E-09 norm 6.40D-07
 State    2 2nd order lowering   -0.277701382520E-08 norm 1.92D-06
 State    3 2nd order lowering   -0.993086571121E-09 norm 1.15D-06
 State    4 2nd order lowering   -0.151863351696E-08 norm 1.42D-06
 Iteration     8 internal iteration     8 dimension is    40
 Root      1 not converged, maximum delta is    0.000093082605200
 Root      2 not converged, maximum delta is    0.000882594132201
 Root      3 not converged, maximum delta is    0.000139802099218
 Root      4 not converged, maximum delta is    0.000353978113395
 Eigenvalues at current iteration:
 Root      1 :  -767.306421366181600   Change is   -0.000000112264047
 Root      2 :  -767.120909054092400   Change is   -0.000001388310011
 Root      3 :  -767.070856063409100   Change is   -0.000000452767836
 Root      4 :  -767.034506924573600   Change is   -0.000000751720904
 DEMax= 1.39D-06
 State    1 2nd order lowering   -0.889635422269E-10 norm 3.43D-07
 State    2 2nd order lowering   -0.169846851398E-08 norm 1.50D-06
 State    3 2nd order lowering   -0.572507619258E-09 norm 8.70D-07
 State    4 2nd order lowering   -0.100460481766E-08 norm 1.15D-06
 Iteration     9 internal iteration     9 dimension is    44
 Root      1 not converged, maximum delta is    0.000043842010009
 Root      2 not converged, maximum delta is    0.000680275030491
 Root      3 not converged, maximum delta is    0.000138316982708
 Root      4 not converged, maximum delta is    0.000440859903318
 Eigenvalues at current iteration:
 Root      1 :  -767.306421395961600   Change is   -0.000000029780040
 Root      2 :  -767.120909823241600   Change is   -0.000000769149210
 Root      3 :  -767.070856313697600   Change is   -0.000000250288508
 Root      4 :  -767.034507430429600   Change is   -0.000000505855951
 DEMax= 7.69D-07
 State    1 2nd order lowering   -0.246208240314E-10 norm 1.80D-07
 State    2 2nd order lowering   -0.825141285068E-09 norm 1.04D-06
 State    3 2nd order lowering   -0.332616231858E-09 norm 6.63D-07
 State    4 2nd order lowering   -0.858935479156E-09 norm 1.07D-06
 Iteration    10 internal iteration    10 dimension is    48
 Root      1 not converged, maximum delta is    0.000022407289063
 Root      2 not converged, maximum delta is    0.000396301565713
 Root      3 not converged, maximum delta is    0.000161630343819
 Root      4 not converged, maximum delta is    0.000675027430681
 Eigenvalues at current iteration:
 Root      1 :  -767.306421404378600   Change is   -0.000000008417032
 Root      2 :  -767.120910164873300   Change is   -0.000000341631676
 Root      3 :  -767.070856497526300   Change is   -0.000000183828661
 Root      4 :  -767.034507952817100   Change is   -0.000000522387495
 DEMax= 5.22D-07
 State    1 2nd order lowering   -0.748125420747E-11 norm 9.94D-08
 State    2 2nd order lowering   -0.394066328778E-09 norm 7.21D-07
 State    3 2nd order lowering   -0.227270786652E-09 norm 5.48D-07
 State    4 2nd order lowering   -0.766039188933E-09 norm 1.01D-06
 Iteration    11 internal iteration    11 dimension is    52
 Root      1 not converged, maximum delta is    0.000011154606452
 Root      2 not converged, maximum delta is    0.000231365575583
 Root      3 not converged, maximum delta is    0.000142806899654
 Root      4 not converged, maximum delta is    0.000729382215114
 Eigenvalues at current iteration:
 Root      1 :  -767.306421406851400   Change is   -0.000000002472802
 Root      2 :  -767.120910322366100   Change is   -0.000000157492764
 Root      3 :  -767.070856609181800   Change is   -0.000000111655481
 Root      4 :  -767.034508388214100   Change is   -0.000000435397055
 DEMax= 4.35D-07
 State    1 2nd order lowering   -0.211920843310E-11 norm 5.29D-08
 State    2 2nd order lowering   -0.190265789381E-09 norm 5.01D-07
 State    3 2nd order lowering   -0.130575430505E-09 norm 4.15D-07
 State    4 2nd order lowering   -0.602875999350E-09 norm 8.92D-07
 Iteration    12 internal iteration    12 dimension is    55
 Root      1 not converged, maximum delta is    0.000001562236921
 Root      2 not converged, maximum delta is    0.000127121461916
 Root      3 not converged, maximum delta is    0.000101775009761
 Root      4 not converged, maximum delta is    0.000594131527626
 Eigenvalues at current iteration:
 Root      1 :  -767.306421406877300   Change is   -0.000000000025921
 Root      2 :  -767.120910392689900   Change is   -0.000000070323836
 Root      3 :  -767.070856659613600   Change is   -0.000000050431822
 Root      4 :  -767.034508679218300   Change is   -0.000000291004199
 DEMax= 2.91D-07
 State    1 2nd order lowering   -0.204276106224E-11 norm 5.19D-08
 State    2 2nd order lowering   -0.841195860012E-10 norm 3.33D-07
 State    3 2nd order lowering   -0.748969762023E-10 norm 3.14D-07
 State    4 2nd order lowering   -0.517165345804E-09 norm 8.26D-07
 Iteration    13 internal iteration    13 dimension is    58
 Root      1 has converged.
 Root      2 not converged, maximum delta is    0.000059238128374
 Root      3 not converged, maximum delta is    0.000083942670088
 Root      4 not converged, maximum delta is    0.000551072613587
 Eigenvalues at current iteration:
 Root      1 :  -767.306421406881200   Change is   -0.000000000003865
 Root      2 :  -767.120910419499900   Change is   -0.000000026809971
 Root      3 :  -767.070856687777000   Change is   -0.000000028163413
 Root      4 :  -767.034508912102400   Change is   -0.000000232884076
 DEMax= 2.33D-07
 State    1 2nd order lowering   -0.204013979085E-11 norm 5.19D-08
 State    2 2nd order lowering   -0.334714557923E-10 norm 2.10D-07
 State    3 2nd order lowering   -0.403452703568E-10 norm 2.31D-07
 State    4 2nd order lowering   -0.401469815223E-09 norm 7.28D-07
 Iteration    14 internal iteration    14 dimension is    61
 Root      1 has converged.
 Root      2 not converged, maximum delta is    0.000027504532291
 Root      3 not converged, maximum delta is    0.000056590591545
 Root      4 not converged, maximum delta is    0.000445533748825
 Eigenvalues at current iteration:
 Root      1 :  -767.306421406884400   Change is   -0.000000000003183
 Root      2 :  -767.120910429326400   Change is   -0.000000009826522
 Root      3 :  -767.070856701791900   Change is   -0.000000014014859
 Root      4 :  -767.034509079223900   Change is   -0.000000167121470
 DEMax= 1.67D-07
 State    1 2nd order lowering   -0.203060014985E-11 norm 5.18D-08
 State    2 2nd order lowering   -0.144557010590E-10 norm 1.38D-07
 State    3 2nd order lowering   -0.194665419841E-10 norm 1.60D-07
 State    4 2nd order lowering   -0.251789751050E-09 norm 5.77D-07
 Iteration    15 internal iteration    15 dimension is    64
 Root      1 has converged.
 Root      2 not converged, maximum delta is    0.000019562577275
 Root      3 not converged, maximum delta is    0.000031528531246
 Root      4 not converged, maximum delta is    0.000285120154484
 Eigenvalues at current iteration:
 Root      1 :  -767.306421406884100   Change is    0.000000000000341
 Root      2 :  -767.120910433582800   Change is   -0.000000004256435
 Root      3 :  -767.070856707749600   Change is   -0.000000005957759
 Root      4 :  -767.034509173538700   Change is   -0.000000094314828
 DEMax= 9.43D-08
 State    1 2nd order lowering   -0.203203546412E-11 norm 5.18D-08
 State    2 2nd order lowering   -0.727339542919E-11 norm 9.80D-08
 State    3 2nd order lowering   -0.743394784212E-11 norm 9.91D-08
 State    4 2nd order lowering   -0.156168656015E-09 norm 4.54D-07
 Iteration    16 internal iteration    16 dimension is    67
 Root      1 has converged.
 Root      2 not converged, maximum delta is    0.000017152246473
 Root      3 not converged, maximum delta is    0.000019755948047
 Root      4 not converged, maximum delta is    0.000206219562508
 Eigenvalues at current iteration:
 Root      1 :  -767.306421406885300   Change is   -0.000000000001251
 Root      2 :  -767.120910435920100   Change is   -0.000000002337288
 Root      3 :  -767.070856710182200   Change is   -0.000000002432557
 Root      4 :  -767.034509232995300   Change is   -0.000000059456625
 DEMax= 5.95D-08
 State    1 2nd order lowering   -0.203292617141E-11 norm 5.18D-08
 State    2 2nd order lowering   -0.381554788882E-11 norm 7.10D-08
 State    3 2nd order lowering   -0.306557665746E-11 norm 6.36D-08
 State    4 2nd order lowering   -0.102959621797E-09 norm 3.69D-07
 Iteration    17 internal iteration    17 dimension is    70
 Root      1 has converged.
 Root      2 not converged, maximum delta is    0.000014623312541
 Root      3 not converged, maximum delta is    0.000014900536915
 Root      4 not converged, maximum delta is    0.000173576071405
 Eigenvalues at current iteration:
 Root      1 :  -767.306421406888000   Change is   -0.000000000002728
 Root      2 :  -767.120910437110300   Change is   -0.000000001190188
 Root      3 :  -767.070856711307900   Change is   -0.000000001125727
 Root      4 :  -767.034509276500300   Change is   -0.000000043504997
 DEMax= 4.35D-08
 State    1 2nd order lowering   -0.202559462195E-11 norm 5.17D-08
 State    2 2nd order lowering   -0.183980236961E-11 norm 4.93D-08
 State    3 2nd order lowering   -0.162155040756E-11 norm 4.63D-08
 State    4 2nd order lowering   -0.752741565937E-10 norm 3.15D-07
 Iteration    18 internal iteration    18 dimension is    73
 Root      1 has converged.
 Root      2 not converged, maximum delta is    0.000011913791980
 Root      3 not converged, maximum delta is    0.000011185582689
 Root      4 not converged, maximum delta is    0.000140145874557
 Eigenvalues at current iteration:
 Root      1 :  -767.306421406888400   Change is   -0.000000000000341
 Root      2 :  -767.120910437710900   Change is   -0.000000000600608
 Root      3 :  -767.070856711903400   Change is   -0.000000000595492
 Root      4 :  -767.034509307659700   Change is   -0.000000031159402
 DEMax= 3.12D-08
 State    1 2nd order lowering   -0.202515110945E-11 norm 5.17D-08
 State    2 2nd order lowering   -0.939201298426E-12 norm 3.52D-08
 State    3 2nd order lowering   -0.885608530821E-12 norm 3.42D-08
 State    4 2nd order lowering   -0.520025907515E-10 norm 2.62D-07
 Iteration    19 internal iteration    19 dimension is    75
 Root      1 has converged.
 Root      2 has converged.
 Root      3 not converged, maximum delta is    0.000007714375147
 Root      4 not converged, maximum delta is    0.000102321944738
 Eigenvalues at current iteration:
 Root      1 :  -767.306421406887800   Change is    0.000000000000568
 Root      2 :  -767.120910437710600   Change is    0.000000000000341
 Root      3 :  -767.070856712219800   Change is   -0.000000000316390
 Root      4 :  -767.034509328242600   Change is   -0.000000020582888
 DEMax= 2.06D-08
 State    1 2nd order lowering   -0.202515111011E-11 norm 5.17D-08
 State    2 2nd order lowering   -0.939201275789E-12 norm 3.52D-08
 State    3 2nd order lowering   -0.519039786634E-12 norm 2.62D-08
 State    4 2nd order lowering   -0.320166100861E-10 norm 2.06D-07
 Iteration    20 internal iteration    20 dimension is    77
 Root      1 has converged.
 Root      2 has converged.
 Root      3 not converged, maximum delta is    0.000004824999616
 Root      4 not converged, maximum delta is    0.000061654465304
 Eigenvalues at current iteration:
 Root      1 :  -767.306421406888000   Change is   -0.000000000000227
 Root      2 :  -767.120910437709900   Change is    0.000000000000682
 Root      3 :  -767.070856712395100   Change is   -0.000000000175305
 Root      4 :  -767.034509339516400   Change is   -0.000000011273755
 DEMax= 1.13D-08
 State    1 2nd order lowering   -0.202515110140E-11 norm 5.17D-08
 State    2 2nd order lowering   -0.939201294855E-12 norm 3.52D-08
 State    3 2nd order lowering   -0.257183498983E-12 norm 1.84D-08
 State    4 2nd order lowering   -0.169267765890E-10 norm 1.49D-07
 Iteration    21 internal iteration    21 dimension is    78
 Root      1 has converged.
 Root      2 has converged.
 Root      3 not converged, maximum delta is    0.000002508083313
 Root      4 not converged, maximum delta is    0.000036711062886
 Eigenvalues at current iteration:
 Root      1 :  -767.306421406887900   Change is    0.000000000000114
 Root      2 :  -767.120910437710400   Change is   -0.000000000000568
 Root      3 :  -767.070856712453200   Change is   -0.000000000058094
 Root      4 :  -767.034509345617700   Change is   -0.000000006101345
 DEMax= 6.10D-09
 State    1 2nd order lowering   -0.202515110548E-11 norm 5.17D-08
 State    2 2nd order lowering   -0.939201288280E-12 norm 3.52D-08
 State    3 2nd order lowering   -0.176617806455E-12 norm 1.53D-08
 State    4 2nd order lowering   -0.777316715851E-11 norm 1.01D-07
 Iteration    22 internal iteration    22 dimension is    79
 Root      1 has converged.
 Root      2 has converged.
 Root      3 not converged, maximum delta is    0.000001503850424
 Root      4 not converged, maximum delta is    0.000020234889670
 Eigenvalues at current iteration:
 Root      1 :  -767.306421406887800   Change is    0.000000000000114
 Root      2 :  -767.120910437710100   Change is    0.000000000000341
 Root      3 :  -767.070856712485700   Change is   -0.000000000032514
 Root      4 :  -767.034509348573600   Change is   -0.000000002955858
 DEMax= 2.96D-09
 State    1 2nd order lowering   -0.202515109687E-11 norm 5.17D-08
 State    2 2nd order lowering   -0.939201292047E-12 norm 3.52D-08
 State    3 2nd order lowering   -0.132675373382E-12 norm 1.32D-08
 State    4 2nd order lowering   -0.392268642630E-11 norm 7.20D-08
 Iteration    23 internal iteration    23 dimension is    80
 Root      1 has converged.
 Root      2 has converged.
 Root      3 has converged.
 Root      4 not converged, maximum delta is    0.000011535345425
 Eigenvalues at current iteration:
 Root      1 :  -767.306421406887700   Change is    0.000000000000114
 Root      2 :  -767.120910437710200   Change is   -0.000000000000114
 Root      3 :  -767.070856712501400   Change is   -0.000000000015689
 Root      4 :  -767.034509350039900   Change is   -0.000000001466333
 DEMax= 1.47D-09
 State    1 2nd order lowering   -0.202515111065E-11 norm 5.17D-08
 State    2 2nd order lowering   -0.939201284942E-12 norm 3.52D-08
 State    3 2nd order lowering   -0.114413795209E-12 norm 1.23D-08
 State    4 2nd order lowering   -0.203500232948E-11 norm 5.18D-08
 Iteration    24 internal iteration    24 dimension is    81
 Root      1 has converged.
 Root      2 has converged.
 Root      3 has converged.
 Root      4 not converged, maximum delta is    0.000007554829855
 Eigenvalues at current iteration:
 Root      1 :  -767.306421406888000   Change is   -0.000000000000341
 Root      2 :  -767.120910437710000   Change is    0.000000000000227
 Root      3 :  -767.070856712510700   Change is   -0.000000000009322
 Root      4 :  -767.034509350737500   Change is   -0.000000000697582
 DEMax= 6.98D-10
 State    1 2nd order lowering   -0.202515110763E-11 norm 5.17D-08
 State    2 2nd order lowering   -0.939201287871E-12 norm 3.52D-08
 State    3 2nd order lowering   -0.105761678629E-12 norm 1.18D-08
 State    4 2nd order lowering   -0.940936644762E-12 norm 3.52D-08
 Iteration    25 internal iteration    25 dimension is    82
 Root      1 has converged.
 Root      2 has converged.
 Root      3 has converged.
 Root      4 not converged, maximum delta is    0.000006393387063
 Eigenvalues at current iteration:
 Root      1 :  -767.306421406887900   Change is    0.000000000000114
 Root      2 :  -767.120910437710600   Change is   -0.000000000000568
 Root      3 :  -767.070856712517100   Change is   -0.000000000006366
 Root      4 :  -767.034509351090000   Change is   -0.000000000352543
 DEMax= 3.53D-10
 State    1 2nd order lowering   -0.202515110024E-11 norm 5.17D-08
 State    2 2nd order lowering   -0.939201296740E-12 norm 3.52D-08
 State    3 2nd order lowering   -0.100351963510E-12 norm 1.15D-08
 State    4 2nd order lowering   -0.504830411074E-12 norm 2.58D-08
 Convergence achieved on expansion vectors.
 ibunc,ibunc2,ibuvec       641       640        23
 Energy state  1 =     -767.3064214069
 Full Convergence on CI vector
 Energy state  2 =     -767.1209104377
 Full Convergence on CI vector
 Energy state  3 =     -767.0708567125
 Full Convergence on CI vector
 Energy state  4 =     -767.0345093511
 Full Convergence on CI vector
 Defining IBUGAM
 State Average Calculation.   The weights are:
 St.: 1 w.=0.250000 # St.: 2 w.=0.250000 # St.: 3 w.=0.250000 # St.: 4 w.=0.250000 #
 2ND ORD PT ENERGY     CV   -0.014149   CU   -0.000927   UV   -0.019599
 TOTAL                    -767.069184
 WARNING! : large rotation  I  J  =                       63
                       60
 Step scaled by    0.2184317534748931     
 ITN=  1 MaxIt=512 E=   -767.0345093511 DE=-7.67D+02 Acc= 1.00D-08 Lan= 82
 In Davids. NSec=    314028
 IMaxHF,MaxMI,MSekIn,IFactt,WhenSc,nroot    5  200    8    2    2    4
          (  1)     Eigenvalue  -767.306421407    
 (       1) 0.9723423 (     121)-0.0932560 (      36)-0.0801147 (      10)-0.0774500 (       6)-0.0748317 (      45)-0.0729256 (   32131)-0.0686473
 (      39)-0.0476367 (      44) 0.0465423 (      32) 0.0456197 (      31)-0.0401532 (      40) 0.0354256 (       9)-0.0331384 (     136) 0.0223715
 (  107209)-0.0209164 (     253)-0.0199246 (  108598)-0.0187480 (      43)-0.0183197 (       8)-0.0172967 (      67) 0.0161198 (   32005)-0.0151496
 (   32638) 0.0143428 (      24)-0.0139491 (  107416)-0.0131717 (  107886) 0.0112514 (      25) 0.0110747 (    1664) 0.0109634 (    1722)-0.0104261
 (    1717) 0.0098240 (  107427) 0.0097886 (  107422) 0.0097622 (  107474)-0.0089006 (       5)-0.0088771 (  107939)-0.0088128 (    1834) 0.0086764
 (  107891)-0.0085523 (  106954) 0.0083117 (   32896)-0.0082281 (   41906) 0.0080417 (   31885)-0.0080246 (    1659) 0.0079783 (    1833) 0.0076523
 (  108345)-0.0074820 (    1711)-0.0074391 (  107880)-0.0071377 (  108815) 0.0071181 (   32134) 0.0070369 (    1770)-0.0068464 (   38756) 0.0068385
 (   32384) 0.0067609 (
          (  2)     Eigenvalue  -767.120910438    
 (     232) 0.9581179 (     277)-0.1242502 (     674) 0.0794836 (   32005)-0.0784615 (     382) 0.0777630 (     354) 0.0740233 (     712) 0.0738474
 (    8386) 0.0722519 (    1082)-0.0666464 (     247)-0.0651487 (     254)-0.0414881 (    1597) 0.0383904 (     706) 0.0344547 (     360) 0.0330616
 (     711)-0.0324397 (     670)-0.0321566 (     386)-0.0321222 (     675)-0.0317089 (     669) 0.0290275 (     359) 0.0285610 (   32131) 0.0276218
 (   41906)-0.0264106 (     707)-0.0257163 (     387)-0.0253314 (     381) 0.0238610 (     355) 0.0234170 (    1097) 0.0226944 (  106954)-0.0207671
 (    8128)-0.0183135 (   32662)-0.0150556 (     380) 0.0129028 (     710) 0.0126656 (     828) 0.0117809 (  108472)-0.0115246 (   31903) 0.0113549
 (  107243)-0.0112701 (     243) 0.0112013 (   32512) 0.0110623 (  106975)-0.0101927 (   32007) 0.0099367 (  125003)-0.0098096 (    8516) 0.0093002
 (     358) 0.0090642 (    8008)-0.0087018 (   72643) 0.0085557 (     468) 0.0083235 (     292) 0.0082526 (  124257) 0.0080393 (   42161)-0.0080230
 (  107910)-0.0078931 (
          (  3)     Eigenvalue  -767.070856713    
 (       4)-0.5555183 (       7) 0.4696386 (      37) 0.4404453 (      29) 0.4264257 (      22) 0.1616110 (       2) 0.1038435 (    1662)-0.0719182
 (    1719)-0.0718569 (    1656)-0.0709945 (    1715) 0.0688764 (  107419)-0.0581563 (  107425)-0.0563440 (  107884) 0.0558113 (  107888)-0.0557907
 (      18) 0.0397585 (   33406)-0.0388858 (     123) 0.0353712 (   33664) 0.0346948 (      42) 0.0346212 (      63)-0.0335996 (   36299) 0.0328492
 (      59) 0.0308015 (   36031) 0.0305980 (      19)-0.0294664 (     124)-0.0265698 (      34) 0.0250403 (      64) 0.0241509 (      58) 0.0232383
 (     128)-0.0222313 (   32386)-0.0221743 (    1661) 0.0206973 (    1660)-0.0174209 (    1657)-0.0170103 (    1604)-0.0169395 (    1600) 0.0160737
 (     129)-0.0157360 (  106957) 0.0150525 (  107424) 0.0139842 (    2908) 0.0136725 (    1713) 0.0131465 (  107423)-0.0128511 (    2909)-0.0120513
 (    2204) 0.0119921 (  107883)-0.0119908 (    1714)-0.0118399 (    2203) 0.0118192 (  107882) 0.0117641 (     373)-0.0112799 (  106961)-0.0105369
 (  115979) 0.0104564 (
          (  4)     Eigenvalue  -767.034509351    
 (       2) 0.6102857 (       4) 0.4585428 (       7) 0.4035707 (      29) 0.3469950 (      37)-0.3014285 (      22)-0.0822415 (    1661)-0.0500120
 (      74)-0.0458450 (      87)-0.0406822 (    1657) 0.0402257 (    1720) 0.0394163 (   33406) 0.0369581 (  107424)-0.0366688 (    1714) 0.0361213
 (   33664) 0.0359515 (     122)-0.0349303 (    1604)-0.0298082 (    1605) 0.0294003 (  107889) 0.0290792 (  107420) 0.0283580 (    1600) 0.0269372
 (  107883) 0.0263865 (    1599) 0.0263003 (  106957) 0.0231568 (    1718) 0.0230869 (  107882) 0.0229500 (   36031) 0.0228636 (  106956) 0.0223594
 (    1892)-0.0216803 (  106962) 0.0210332 (   36299)-0.0208426 (  106961)-0.0206407 (    1660)-0.0193462 (      86) 0.0183605 (    1954)-0.0182830
 (      81)-0.0181204 (  107887) 0.0174726 (      75) 0.0174680 (  107423)-0.0171846 (      70) 0.0168097 (     123)-0.0162903 (     129)-0.0159235
 (      19) 0.0148061 (  107418) 0.0141110 (      34)-0.0135836 (   32132)-0.0126670 (   31883) 0.0124548 (      58)-0.0123883 (     128) 0.0109324
 (      17)-0.0108462 (
 Davidson Disk Diagonalization is being used:
 MVecIn=      4 MSekIn=    4 NVConv=    4 MConv=    4 WhenSc=  0 IFact=    1 FinIt=F
 NRoot=     4 Conv= 0.00D+00 MaxIt=      314028 Dim=      314028 Max sub=   200
 Iteration     1 internal iteration     1 dimension is     4
 Eigenvalues at current iteration:
 Root      1 :  -767.310820001256500
 Root      2 :  -767.129521924849300
 Root      3 :  -767.084180712332600
 Root      4 :  -767.038737741587700
 DEMax= 0.00D+00
 State    1 2nd order lowering   -0.595142290741E-05 norm 8.87D-05
 State    2 2nd order lowering   -0.792121235242E-05 norm 1.02D-04
 State    3 2nd order lowering   -0.121539531960E-04 norm 1.27D-04
 State    4 2nd order lowering   -0.625735629032E-05 norm 9.10D-05
 Iteration     2 internal iteration     2 dimension is     8
 Root      1 not converged, maximum delta is    0.020688723226527
 Root      2 not converged, maximum delta is    0.028620922304855
 Root      3 not converged, maximum delta is    0.033273831866351
 Root      4 not converged, maximum delta is    0.017050876969627
 Eigenvalues at current iteration:
 Root      1 :  -767.315585496941500   Change is   -0.004765495684978
 Root      2 :  -767.137104483655000   Change is   -0.007582558805666
 Root      3 :  -767.097473993156900   Change is   -0.013293280824314
 Root      4 :  -767.044492508718500   Change is   -0.005754767130725
 DEMax= 1.33D-02
 State    1 2nd order lowering   -0.289651479098E-06 norm 1.96D-05
 State    2 2nd order lowering   -0.156537502937E-05 norm 4.55D-05
 State    3 2nd order lowering   -0.195993950351E-05 norm 5.09D-05
 State    4 2nd order lowering   -0.834665470674E-06 norm 3.32D-05
 Iteration     3 internal iteration     3 dimension is    12
 Root      1 not converged, maximum delta is    0.003980628149460
 Root      2 not converged, maximum delta is    0.034874972685286
 Root      3 not converged, maximum delta is    0.010487429417010
 Root      4 not converged, maximum delta is    0.009055640713783
 Eigenvalues at current iteration:
 Root      1 :  -767.315802378068800   Change is   -0.000216881127358
 Root      2 :  -767.139245715466800   Change is   -0.002141231811834
 Root      3 :  -767.099082996964300   Change is   -0.001609003807403
 Root      4 :  -767.045306182230400   Change is   -0.000813673511971
 DEMax= 2.14D-03
 State    1 2nd order lowering   -0.701572025059E-07 norm 9.63D-06
 State    2 2nd order lowering   -0.110098018726E-05 norm 3.82D-05
 State    3 2nd order lowering   -0.353992431312E-06 norm 2.16D-05
 State    4 2nd order lowering   -0.227259470585E-06 norm 1.73D-05
 Iteration     4 internal iteration     4 dimension is    16
 Root      1 not converged, maximum delta is    0.002268940196626
 Root      2 not converged, maximum delta is    0.022157036175119
 Root      3 not converged, maximum delta is    0.005021353300009
 Root      4 not converged, maximum delta is    0.003265644149505
 Eigenvalues at current iteration:
 Root      1 :  -767.315848888647200   Change is   -0.000046510578386
 Root      2 :  -767.140106349917100   Change is   -0.000860634450305
 Root      3 :  -767.099311898355500   Change is   -0.000228901391210
 Root      4 :  -767.045463311237400   Change is   -0.000157129006993
 DEMax= 8.61D-04
 State    1 2nd order lowering   -0.213158911376E-07 norm 5.31D-06
 State    2 2nd order lowering   -0.425489052639E-06 norm 2.37D-05
 State    3 2nd order lowering   -0.112027022261E-06 norm 1.22D-05
 State    4 2nd order lowering   -0.810588417320E-07 norm 1.04D-05
 Iteration     5 internal iteration     5 dimension is    20
 Root      1 not converged, maximum delta is    0.000608251529258
 Root      2 not converged, maximum delta is    0.006874709169799
 Root      3 not converged, maximum delta is    0.006655780825873
 Root      4 not converged, maximum delta is    0.003345478146270
 Eigenvalues at current iteration:
 Root      1 :  -767.315856668750700   Change is   -0.000007780103488
 Root      2 :  -767.140293867296100   Change is   -0.000187517379004
 Root      3 :  -767.099399146234500   Change is   -0.000087247879037
 Root      4 :  -767.045517120194600   Change is   -0.000053808957205
 DEMax= 1.88D-04
 State    1 2nd order lowering   -0.140421274030E-07 norm 4.30D-06
 State    2 2nd order lowering   -0.415743843235E-06 norm 2.34D-05
 State    3 2nd order lowering   -0.104405713894E-06 norm 1.17D-05
 State    4 2nd order lowering   -0.966075488855E-07 norm 1.13D-05
 Iteration     6 internal iteration     6 dimension is    24
 Root      1 not converged, maximum delta is    0.000376388537876
 Root      2 not converged, maximum delta is    0.003834954247446
 Root      3 not converged, maximum delta is    0.006507786104995
 Root      4 not converged, maximum delta is    0.002918104560666
 Eigenvalues at current iteration:
 Root      1 :  -767.315860053553400   Change is   -0.000003384802653
 Root      2 :  -767.140382156122900   Change is   -0.000088288826760
 Root      3 :  -767.099449518095300   Change is   -0.000050371860766
 Root      4 :  -767.045547556136400   Change is   -0.000030435941767
 DEMax= 8.83D-05
 State    1 2nd order lowering   -0.320407493420E-08 norm 2.06D-06
 State    2 2nd order lowering   -0.118212810504E-06 norm 1.25D-05
 State    3 2nd order lowering   -0.153360444544E-06 norm 1.42D-05
 State    4 2nd order lowering   -0.865998923643E-07 norm 1.07D-05
 Iteration     7 internal iteration     7 dimension is    28
 Root      1 not converged, maximum delta is    0.000219207514150
 Root      2 not converged, maximum delta is    0.003011190393407
 Root      3 not converged, maximum delta is    0.008874885907564
 Root      4 not converged, maximum delta is    0.007516096223213
 Eigenvalues at current iteration:
 Root      1 :  -767.315861056018100   Change is   -0.000001002464728
 Root      2 :  -767.140433360482500   Change is   -0.000051204359579
 Root      3 :  -767.099505300435100   Change is   -0.000055782339814
 Root      4 :  -767.045604347534000   Change is   -0.000056791397583
 DEMax= 5.68D-05
 State    1 2nd order lowering   -0.151031472791E-08 norm 1.41D-06
 State    2 2nd order lowering   -0.665081634814E-07 norm 9.37D-06
 State    3 2nd order lowering   -0.114086940921E-06 norm 1.23D-05
 State    4 2nd order lowering   -0.114791618137E-06 norm 1.23D-05
 Iteration     8 internal iteration     8 dimension is    32
 Root      1 not converged, maximum delta is    0.000123857765463
 Root      2 not converged, maximum delta is    0.001233960658608
 Root      3 not converged, maximum delta is    0.012455996210028
 Root      4 not converged, maximum delta is    0.009136226945080
 Eigenvalues at current iteration:
 Root      1 :  -767.315861399248700   Change is   -0.000000343230568
 Root      2 :  -767.140450154961700   Change is   -0.000016794479279
 Root      3 :  -767.099569350644500   Change is   -0.000064050209403
 Root      4 :  -767.045662362888500   Change is   -0.000058015354512
 DEMax= 6.41D-05
 State    1 2nd order lowering   -0.392669395687E-09 norm 7.20D-07
 State    2 2nd order lowering   -0.289350212596E-07 norm 6.18D-06
 State    3 2nd order lowering   -0.135513375087E-06 norm 1.34D-05
 State    4 2nd order lowering   -0.170363287478E-06 norm 1.50D-05
 Iteration     9 internal iteration     9 dimension is    36
 Root      1 not converged, maximum delta is    0.000083170569919
 Root      2 not converged, maximum delta is    0.001050228062635
 Root      3 not converged, maximum delta is    0.010193731964255
 Root      4 not converged, maximum delta is    0.013989135129780
 Eigenvalues at current iteration:
 Root      1 :  -767.315861516483600   Change is   -0.000000117234890
 Root      2 :  -767.140460119840700   Change is   -0.000009964878927
 Root      3 :  -767.099617352488800   Change is   -0.000048001844334
 Root      4 :  -767.045743488650800   Change is   -0.000081125762335
 DEMax= 8.11D-05
 State    1 2nd order lowering   -0.151330803228E-09 norm 4.47D-07
 State    2 2nd order lowering   -0.106968844230E-07 norm 3.76D-06
 State    3 2nd order lowering   -0.103739985975E-06 norm 1.17D-05
 State    4 2nd order lowering   -0.152945404212E-06 norm 1.42D-05
 Iteration    10 internal iteration    10 dimension is    40
 Root      1 not converged, maximum delta is    0.000051765446404
 Root      2 not converged, maximum delta is    0.000637651388706
 Root      3 not converged, maximum delta is    0.007808179020552
 Root      4 not converged, maximum delta is    0.014530131924683
 Eigenvalues at current iteration:
 Root      1 :  -767.315861557176700   Change is   -0.000000040693180
 Root      2 :  -767.140463599861100   Change is   -0.000003480020382
 Root      3 :  -767.099651596790900   Change is   -0.000034244302014
 Root      4 :  -767.045821796226300   Change is   -0.000078307575450
 DEMax= 7.83D-05
 State    1 2nd order lowering   -0.534114538286E-10 norm 2.66D-07
 State    2 2nd order lowering   -0.526746813101E-08 norm 2.64D-06
 State    3 2nd order lowering   -0.400666024747E-07 norm 7.27D-06
 State    4 2nd order lowering   -0.156549016909E-06 norm 1.44D-05
 Iteration    11 internal iteration    11 dimension is    44
 Root      1 not converged, maximum delta is    0.000038295337053
 Root      2 not converged, maximum delta is    0.000442789859295
 Root      3 not converged, maximum delta is    0.003214432669567
 Root      4 not converged, maximum delta is    0.011803596492436
 Eigenvalues at current iteration:
 Root      1 :  -767.315861574132700   Change is   -0.000000016955937
 Root      2 :  -767.140465150878000   Change is   -0.000001551016908
 Root      3 :  -767.099664830778900   Change is   -0.000013233988057
 Root      4 :  -767.045882818838400   Change is   -0.000061022612158
 DEMax= 6.10D-05
 State    1 2nd order lowering   -0.210719588886E-10 norm 1.67D-07
 State    2 2nd order lowering   -0.184492445244E-08 norm 1.56D-06
 State    3 2nd order lowering   -0.150090170278E-07 norm 4.45D-06
 State    4 2nd order lowering   -0.115123074887E-06 norm 1.23D-05
 Iteration    12 internal iteration    12 dimension is    48
 Root      1 not converged, maximum delta is    0.000019646112472
 Root      2 not converged, maximum delta is    0.000310774164351
 Root      3 not converged, maximum delta is    0.001159684248954
 Root      4 not converged, maximum delta is    0.009404390978103
 Eigenvalues at current iteration:
 Root      1 :  -767.315861579574500   Change is   -0.000000005441848
 Root      2 :  -767.140465813901500   Change is   -0.000000663023570
 Root      3 :  -767.099669353744800   Change is   -0.000004522965924
 Root      4 :  -767.045930638048000   Change is   -0.000047819209612
 DEMax= 4.78D-05
 State    1 2nd order lowering   -0.694254363510E-11 norm 9.57D-08
 State    2 2nd order lowering   -0.916390383177E-09 norm 1.10D-06
 State    3 2nd order lowering   -0.564438207602E-08 norm 2.73D-06
 State    4 2nd order lowering   -0.735071477129E-07 norm 9.85D-06
 Iteration    13 internal iteration    13 dimension is    52
 Root      1 not converged, maximum delta is    0.000012129818706
 Root      2 not converged, maximum delta is    0.000216886117471
 Root      3 not converged, maximum delta is    0.000477618899805
 Root      4 not converged, maximum delta is    0.005738502485487
 Eigenvalues at current iteration:
 Root      1 :  -767.315861581609600   Change is   -0.000000002035108
 Root      2 :  -767.140466120809700   Change is   -0.000000306908191
 Root      3 :  -767.099671094053600   Change is   -0.000001740308790
 Root      4 :  -767.045960258014400   Change is   -0.000029619966313
 DEMax= 2.96D-05
 State    1 2nd order lowering   -0.270265718683E-11 norm 5.97D-08
 State    2 2nd order lowering   -0.430196853086E-09 norm 7.54D-07
 State    3 2nd order lowering   -0.211334974660E-08 norm 1.67D-06
 State    4 2nd order lowering   -0.518139133212E-07 norm 8.27D-06
 Iteration    14 internal iteration    14 dimension is    56
 Root      1 not converged, maximum delta is    0.000007458604302
 Root      2 not converged, maximum delta is    0.000135471142346
 Root      3 not converged, maximum delta is    0.000207262294420
 Root      4 not converged, maximum delta is    0.004890056829647
 Eigenvalues at current iteration:
 Root      1 :  -767.315861582415900   Change is   -0.000000000806267
 Root      2 :  -767.140466254207900   Change is   -0.000000133398203
 Root      3 :  -767.099671810999000   Change is   -0.000000716945351
 Root      4 :  -767.045982530606500   Change is   -0.000022272592105
 DEMax= 2.23D-05
 State    1 2nd order lowering   -0.100343549470E-11 norm 3.64D-08
 State    2 2nd order lowering   -0.195111538479E-09 norm 5.08D-07
 State    3 2nd order lowering   -0.108232350059E-08 norm 1.20D-06
 State    4 2nd order lowering   -0.465574665950E-07 norm 7.84D-06
 Iteration    15 internal iteration    15 dimension is    60
 Root      1 not converged, maximum delta is    0.000004231308682
 Root      2 not converged, maximum delta is    0.000083774988638
 Root      3 not converged, maximum delta is    0.000142734148679
 Root      4 not converged, maximum delta is    0.006169628998948
 Eigenvalues at current iteration:
 Root      1 :  -767.315861582724300   Change is   -0.000000000308432
 Root      2 :  -767.140466313304800   Change is   -0.000000059096919
 Root      3 :  -767.099672173654500   Change is   -0.000000362655555
 Root      4 :  -767.046006764375100   Change is   -0.000024233768613
 DEMax= 2.42D-05
 State    1 2nd order lowering   -0.394836318858E-12 norm 2.28D-08
 State    2 2nd order lowering   -0.908811629872E-10 norm 3.46D-07
 State    3 2nd order lowering   -0.567120365711E-09 norm 8.65D-07
 State    4 2nd order lowering   -0.600546443281E-07 norm 8.91D-06
 Iteration    16 internal iteration    16 dimension is    63
 Root      1 has converged.
 Root      2 not converged, maximum delta is    0.000056061670214
 Root      3 not converged, maximum delta is    0.000170506196942
 Root      4 not converged, maximum delta is    0.009968713436973
 Eigenvalues at current iteration:
 Root      1 :  -767.315861582726100   Change is   -0.000000000001819
 Root      2 :  -767.140466342841000   Change is   -0.000000029536182
 Root      3 :  -767.099672397357800   Change is   -0.000000223703296
 Root      4 :  -767.046042588491800   Change is   -0.000035824116708
 DEMax= 3.58D-05
 State    1 2nd order lowering   -0.388266170011E-12 norm 2.26D-08
 State    2 2nd order lowering   -0.437770468229E-10 norm 2.40D-07
 State    3 2nd order lowering   -0.348024033475E-09 norm 6.78D-07
 State    4 2nd order lowering   -0.954951285711E-07 norm 1.12D-05
 Iteration    17 internal iteration    17 dimension is    66
 Root      1 has converged.
 Root      2 not converged, maximum delta is    0.000037117722258
 Root      3 not converged, maximum delta is    0.000182264487606
 Root      4 not converged, maximum delta is    0.015342766257699
 Eigenvalues at current iteration:
 Root      1 :  -767.315861582726700   Change is   -0.000000000000568
 Root      2 :  -767.140466357392900   Change is   -0.000000014551915
 Root      3 :  -767.099672537451900   Change is   -0.000000140094016
 Root      4 :  -767.046095975721300   Change is   -0.000053387229514
 DEMax= 5.34D-05
 State    1 2nd order lowering   -0.388385055681E-12 norm 2.26D-08
 State    2 2nd order lowering   -0.208185122127E-10 norm 1.66D-07
 State    3 2nd order lowering   -0.263870647700E-09 norm 5.90D-07
 State    4 2nd order lowering   -0.136644305716E-06 norm 1.34D-05
 Iteration    18 internal iteration    18 dimension is    69
 Root      1 has converged.
 Root      2 not converged, maximum delta is    0.000026749552087
 Root      3 not converged, maximum delta is    0.000231261178547
 Root      4 not converged, maximum delta is    0.021392047326641
 Eigenvalues at current iteration:
 Root      1 :  -767.315861582727100   Change is   -0.000000000000341
 Root      2 :  -767.140466364383200   Change is   -0.000000006990263
 Root      3 :  -767.099672657409400   Change is   -0.000000119957576
 Root      4 :  -767.046170767545300   Change is   -0.000074791823977
 DEMax= 7.48D-05
 State    1 2nd order lowering   -0.387709018540E-12 norm 2.26D-08
 State    2 2nd order lowering   -0.101827463743E-10 norm 1.16D-07
 State    3 2nd order lowering   -0.225560091842E-09 norm 5.46D-07
 State    4 2nd order lowering   -0.154555359407E-06 norm 1.43D-05
 Iteration    19 internal iteration    19 dimension is    72
 Root      1 has converged.
 Root      2 not converged, maximum delta is    0.000021025364327
 Root      3 not converged, maximum delta is    0.000277278513166
 Root      4 not converged, maximum delta is    0.020195057325611
 Eigenvalues at current iteration:
 Root      1 :  -767.315861582726900   Change is    0.000000000000114
 Root      2 :  -767.140466368168100   Change is   -0.000000003784862
 Root      3 :  -767.099672766607800   Change is   -0.000000109198368
 Root      4 :  -767.046243224686400   Change is   -0.000072457141073
 DEMax= 7.25D-05
 State    1 2nd order lowering   -0.388388177976E-12 norm 2.26D-08
 State    2 2nd order lowering   -0.500448014374E-11 norm 8.13D-08
 State    3 2nd order lowering   -0.215658631724E-09 norm 5.34D-07
 State    4 2nd order lowering   -0.133259449252E-06 norm 1.33D-05
 Iteration    20 internal iteration    20 dimension is    75
 Root      1 has converged.
 Root      2 not converged, maximum delta is    0.000013558216435
 Root      3 not converged, maximum delta is    0.000248809560017
 Root      4 not converged, maximum delta is    0.015091465280355
 Eigenvalues at current iteration:
 Root      1 :  -767.315861582727400   Change is   -0.000000000000455
 Root      2 :  -767.140466369944300   Change is   -0.000000001776243
 Root      3 :  -767.099672849112500   Change is   -0.000000082504698
 Root      4 :  -767.046298935777400   Change is   -0.000055711091022
 DEMax= 5.57D-05
 State    1 2nd order lowering   -0.386844466700E-12 norm 2.26D-08
 State    2 2nd order lowering   -0.264692716541E-11 norm 5.91D-08
 State    3 2nd order lowering   -0.122837513087E-09 norm 4.03D-07
 State    4 2nd order lowering   -0.863519722407E-07 norm 1.07D-05
 Iteration    21 internal iteration    21 dimension is    78
 Root      1 has converged.
 Root      2 not converged, maximum delta is    0.000011453702275
 Root      3 not converged, maximum delta is    0.000155941915273
 Root      4 not converged, maximum delta is    0.008606261537116
 Eigenvalues at current iteration:
 Root      1 :  -767.315861582728200   Change is   -0.000000000000796
 Root      2 :  -767.140466370882500   Change is   -0.000000000938144
 Root      3 :  -767.099672892395100   Change is   -0.000000043282625
 Root      4 :  -767.046331275032300   Change is   -0.000032339254972
 DEMax= 3.23D-05
 State    1 2nd order lowering   -0.388122721064E-12 norm 2.26D-08
 State    2 2nd order lowering   -0.151486297703E-11 norm 4.47D-08
 State    3 2nd order lowering   -0.566971336021E-10 norm 2.74D-07
 State    4 2nd order lowering   -0.461246060430E-07 norm 7.80D-06
 Iteration    22 internal iteration    22 dimension is    81
 Root      1 has converged.
 Root      2 not converged, maximum delta is    0.000011407113484
 Root      3 not converged, maximum delta is    0.000095714711513
 Root      4 not converged, maximum delta is    0.004670389115235
 Eigenvalues at current iteration:
 Root      1 :  -767.315861582730800   Change is   -0.000000000002615
 Root      2 :  -767.140466371484600   Change is   -0.000000000602199
 Root      3 :  -767.099672913563300   Change is   -0.000000021168148
 Root      4 :  -767.046348204603900   Change is   -0.000016929571530
 DEMax= 1.69D-05
 State    1 2nd order lowering   -0.386441734146E-12 norm 2.26D-08
 State    2 2nd order lowering   -0.966292766938E-12 norm 3.57D-08
 State    3 2nd order lowering   -0.382186974440E-10 norm 2.25D-07
 State    4 2nd order lowering   -0.238163448204E-07 norm 5.61D-06
 Iteration    23 internal iteration    23 dimension is    84
 Root      1 has converged.
 Root      2 not converged, maximum delta is    0.000009047035737
 Root      3 not converged, maximum delta is    0.000083902908742
 Root      4 not converged, maximum delta is    0.002386188341090
 Eigenvalues at current iteration:
 Root      1 :  -767.315861582730700   Change is    0.000000000000114
 Root      2 :  -767.140466371829200   Change is   -0.000000000344585
 Root      3 :  -767.099672928611000   Change is   -0.000000015047704
 Root      4 :  -767.046356530514000   Change is   -0.000008325910130
 DEMax= 8.33D-06
 State    1 2nd order lowering   -0.386618833553E-12 norm 2.26D-08
[...]
    21  C    0.000019   0.000000   0.000000   0.000006   0.000000   0.000000
    22  H    0.000026   0.000000   0.000000   0.000001   0.000000   0.000000
    23  H    0.000000   0.000000   0.000000  -0.000001   0.000000   0.000000
    24  C   -0.000253  -0.000006  -0.000001   0.000014   0.000002   0.000000
    25  H    0.000127   0.000009   0.000000  -0.000002  -0.000001   0.000000
    26  H    0.000000   0.000000   0.000000   0.000000   0.000000   0.000000
    27  C    0.000029  -0.000006  -0.000006  -0.000006  -0.000029   0.000000
    28  C   -0.000006  -0.000006   0.000029  -0.000006  -0.000748   0.000049
    29  O   -0.000005  -0.000006   0.000000   0.000000   0.000025  -0.000003
    30  O    0.000000   0.000000  -0.000005  -0.000006   0.000000   0.000000
    31  H    0.000000   0.000001   0.000026   0.000000  -0.002559   0.002655
    32  H    0.000000  -0.000001   0.000000   0.000000   0.004164  -0.000032
    33  H    0.000000   0.000000   0.000000   0.000000  -0.000182  -0.000028
    34  H    0.000000  -0.000002   0.000127   0.000009   0.002104   0.000133
    35  H   -0.000002   0.000000   0.000000  -0.000052   0.000000   0.000000
    36  H    0.000009   0.000000   0.000006   0.001072   0.000000   0.000000
    37  H   -0.000002   0.000002  -0.000002   0.001184   0.000000   0.000000
    38  H    0.003008  -0.000007   0.000002  -0.000003   0.000000   0.000000
             13         14         15         16         17         18
     1  C   -0.000001   0.000004   0.000000  -0.000001   0.000001   0.000065
     2  C   -0.000019   0.000147  -0.000001  -0.000014  -0.000003   0.000044
     3  C   -0.002493  -0.005855   0.000049   0.001318   0.000266   0.000183
     4  C   -0.044046  -0.050475   0.005392  -0.004776  -0.001367  -0.003407
     5  C    0.001305  -0.000304  -0.000054   0.000404   0.000467  -0.004027
     6  C   -0.000107  -0.000084   0.000000  -0.000010   0.000018  -0.000642
     7  H   -0.000002   0.000003   0.000000   0.000006   0.000000  -0.000001
     8  H    0.001184   0.000256  -0.000052   0.001072   0.000006   0.000014
     9  H   -0.000002   0.000060  -0.000002   0.000009   0.000019  -0.000253
    10  H    0.000002   0.000002   0.000000   0.000000   0.000000  -0.000006
    11  C    0.406868   0.326295  -0.042730  -0.041536  -0.046821   0.000270
    12  H   -0.026851  -0.039027  -0.001107   0.003801  -0.002600  -0.000008
    13  H    0.535011  -0.043992  -0.004554  -0.000689   0.003773  -0.000068
    14  C   -0.043992   5.121660   0.403308   0.398690   0.339519  -0.044551
    15  H   -0.004554   0.403308   0.553648  -0.028967  -0.042718   0.004175
    16  H   -0.000689   0.398690  -0.028967   0.522675  -0.036483  -0.003638
    17  C    0.003773   0.339519  -0.042718  -0.036483   5.075995   0.324141
    18  C   -0.000068  -0.044551   0.004175  -0.003638   0.324141   5.211536
    19  C    0.000000   0.000000   0.000000   0.000000   0.000000   0.000002
    20  C    0.000000   0.000000   0.000000   0.000000   0.000000  -0.000003
    21  C    0.000000   0.000000   0.000000   0.000000   0.000000  -0.000044
    22  H    0.000000   0.000000   0.000000   0.000000   0.000000   0.000001
    23  H    0.000000   0.000000   0.000000   0.000000   0.000000  -0.000003
    24  C    0.000000  -0.000003   0.000000  -0.000006  -0.000044   0.005200
    25  H    0.000000  -0.000002   0.000000   0.000011  -0.000009   0.000021
    26  H    0.000000   0.000000   0.000000   0.000000   0.000000  -0.000083
    27  C    0.000000  -0.000198   0.000003   0.000070   0.003132  -0.079949
    28  C   -0.000011  -0.000532   0.000012   0.001127  -0.049016   0.316947
    29  O   -0.000001  -0.002000   0.000036   0.002933   0.002209  -0.057509
    30  O    0.000000   0.000000   0.000000  -0.000001   0.000146   0.008867
    31  H   -0.000108  -0.041445  -0.003903   0.004208   0.404100  -0.045881
    32  H   -0.000086  -0.041378  -0.003496  -0.003058   0.403892  -0.038817
    33  H    0.000003   0.003722  -0.000063  -0.000080  -0.037093   0.396587
    34  H    0.000008  -0.002602  -0.000102   0.000063  -0.032004   0.394540
    35  H    0.000000   0.000000   0.000000   0.000000   0.000000   0.000000
    36  H    0.000000   0.000000   0.000000   0.000000   0.000000  -0.000006
    37  H    0.000000   0.000000   0.000000   0.000000   0.000000   0.000000
    38  H    0.000000   0.000000   0.000000   0.000000   0.000000   0.000000
             19         20         21         22         23         24
     1  C    0.323705  -0.050475  -0.001367   0.000092  -0.000195  -0.003407
     2  C   -0.038606  -0.000304   0.000467   0.000046  -0.000012  -0.004027
     3  C    0.003634  -0.000084   0.000018   0.000000   0.000000  -0.000642
     4  C    0.000314   0.000004   0.000001   0.000000   0.000000   0.000065
     5  C    0.002585   0.000147  -0.000003   0.000000   0.000001   0.000044
     6  C   -0.050509  -0.005855   0.000266   0.000005  -0.000018   0.000183
     7  H   -0.002974   0.000060   0.000019   0.000026   0.000000  -0.000253
     8  H   -0.000117   0.000002   0.000000   0.000000   0.000000  -0.000006
     9  H   -0.000117   0.000003   0.000000   0.000000   0.000000  -0.000001
    10  H   -0.002060   0.000256   0.000006   0.000001  -0.000001   0.000014
    11  C    0.000002   0.000000   0.000000   0.000000   0.000000   0.000002
    12  H    0.000000   0.000000   0.000000   0.000000   0.000000   0.000000
    13  H    0.000000   0.000000   0.000000   0.000000   0.000000   0.000000
    14  C    0.000000   0.000000   0.000000   0.000000   0.000000  -0.000003
    15  H    0.000000   0.000000   0.000000   0.000000   0.000000   0.000000
    16  H    0.000000   0.000000   0.000000   0.000000   0.000000  -0.000006
    17  C    0.000000   0.000000   0.000000   0.000000   0.000000  -0.000044
    18  C    0.000002  -0.000003  -0.000044   0.000001  -0.000003   0.005200
    19  C    5.098519   0.326295  -0.046821  -0.002559   0.004164   0.000270
    20  C    0.326295   5.121660   0.339519  -0.041445  -0.041378  -0.044551
    21  C   -0.046821   0.339519   5.075995   0.404100   0.403892   0.324141
    22  H   -0.002559  -0.041445   0.404100   0.551476  -0.028979  -0.045881
    23  H    0.004164  -0.041378   0.403892  -0.028979   0.534794  -0.038817
    24  C    0.000270  -0.044551   0.324141  -0.045881  -0.038817   5.211536
    25  H    0.002104  -0.002602  -0.032004  -0.003072   0.003893   0.394540
    26  H   -0.000182   0.003722  -0.037093  -0.002947  -0.003586   0.396587
    27  C   -0.000748  -0.000532  -0.049016   0.004755  -0.004485   0.316947
    28  C   -0.000029  -0.000198   0.003132  -0.000027  -0.000014  -0.079949
    29  O    0.000000   0.000000   0.000146  -0.000001  -0.000006   0.008867
    30  O    0.000025  -0.002000   0.002209   0.000042   0.002366  -0.057509
    31  H    0.000000   0.000000   0.000000   0.000000   0.000000   0.000001
    32  H    0.000000   0.000000   0.000000   0.000000   0.000000  -0.000003
    33  H    0.000000   0.000000   0.000000   0.000000   0.000000  -0.000083
    34  H   -0.000001  -0.000002  -0.000009   0.000000   0.000001   0.000021
    35  H   -0.042730   0.403308  -0.042718  -0.003903  -0.003496   0.004175
    36  H   -0.041536   0.398690  -0.036483   0.004208  -0.003058  -0.003638
    37  H    0.406868  -0.043992   0.003773  -0.000108  -0.000086  -0.000068
    38  H    0.402228  -0.039027  -0.002600   0.002655  -0.000032  -0.000008
             25         26         27         28         29         30
     1  C   -0.002774   0.000227  -0.000153   0.000112  -0.000002  -0.000304
     2  C    0.002019   0.000130   0.000270  -0.000304  -0.000232  -0.000010
     3  C    0.000691   0.000002  -0.000252   0.000807   0.000234   0.000012
     4  C    0.000005  -0.000003   0.000112  -0.000153  -0.000304  -0.000002
     5  C   -0.000068  -0.000002  -0.000304   0.000270  -0.000010  -0.000232
     6  C   -0.000270   0.000005   0.000807  -0.000252   0.000012   0.000234
     7  H    0.000127   0.000000   0.000029  -0.000006  -0.000005   0.000000
     8  H    0.000009   0.000000  -0.000006  -0.000006  -0.000006   0.000000
     9  H    0.000000   0.000000  -0.000006   0.000029   0.000000  -0.000005
    10  H   -0.000002   0.000000  -0.000006  -0.000006   0.000000  -0.000006
    11  C   -0.000001   0.000000  -0.000029  -0.000748   0.000025   0.000000
    12  H    0.000000   0.000000   0.000000   0.000049  -0.000003   0.000000
    13  H    0.000000   0.000000   0.000000  -0.000011  -0.000001   0.000000
    14  C   -0.000002   0.000000  -0.000198  -0.000532  -0.002000   0.000000
    15  H    0.000000   0.000000   0.000003   0.000012   0.000036   0.000000
    16  H    0.000011   0.000000   0.000070   0.001127   0.002933  -0.000001
    17  C   -0.000009   0.000000   0.003132  -0.049016   0.002209   0.000146
    18  C    0.000021  -0.000083  -0.079949   0.316947  -0.057509   0.008867
    19  C    0.002104  -0.000182  -0.000748  -0.000029   0.000000   0.000025
    20  C   -0.002602   0.003722  -0.000532  -0.000198   0.000000  -0.002000
    21  C   -0.032004  -0.037093  -0.049016   0.003132   0.000146   0.002209
    22  H   -0.003072  -0.002947   0.004755  -0.000027  -0.000001   0.000042
    23  H    0.003893  -0.003586  -0.004485  -0.000014  -0.000006   0.002366
    24  C    0.394540   0.396587   0.316947  -0.079949   0.008867  -0.057509
    25  H    0.501936  -0.028937  -0.040392   0.000171   0.000604   0.002153
    26  H   -0.028937   0.522571  -0.041388  -0.002346   0.000968   0.001070
    27  C   -0.040392  -0.041388   4.895480   0.418220  -0.063366   0.341523
    28  C    0.000171  -0.002346   0.418220   4.895480   0.341523  -0.063366
    29  O    0.000604   0.000968  -0.063366   0.341523   8.105857   0.001869
    30  O    0.002153   0.001070   0.341523  -0.063366   0.001869   8.105857
    31  H    0.000000   0.000000  -0.000027   0.004755   0.000042  -0.000001
    32  H    0.000001   0.000000  -0.000014  -0.004485   0.002366  -0.000006
    33  H   -0.000010   0.000007  -0.002346  -0.041388   0.001070   0.000968
    34  H    0.000001  -0.000010   0.000171  -0.040392   0.002153   0.000604
    35  H   -0.000102  -0.000063   0.000012   0.000003   0.000000   0.000036
    36  H    0.000063  -0.000080   0.001127   0.000070  -0.000001   0.002933
    37  H    0.000008   0.000003  -0.000011   0.000000   0.000000  -0.000001
    38  H    0.000133  -0.000028   0.000049   0.000000   0.000000  -0.000003
             31         32         33         34         35         36
     1  C    0.000000   0.000000  -0.000003   0.000005   0.005392  -0.004776
     2  C    0.000000   0.000001  -0.000002  -0.000068  -0.000054   0.000404
     3  C    0.000005  -0.000018   0.000005  -0.000270   0.000000  -0.000010
     4  C    0.000092  -0.000195   0.000227  -0.002774   0.000000  -0.000001
     5  C    0.000046  -0.000012   0.000130   0.002019  -0.000001  -0.000014
     6  C    0.000000   0.000000   0.000002   0.000691   0.000049   0.001318
     7  H    0.000000   0.000000   0.000000   0.000000  -0.000002   0.000009
     8  H    0.000001  -0.000001   0.000000  -0.000002   0.000000   0.000000
     9  H    0.000026   0.000000   0.000000   0.000127   0.000000   0.000006
    10  H    0.000000   0.000000   0.000000   0.000009  -0.000052   0.001072
    11  C   -0.002559   0.004164  -0.000182   0.002104   0.000000   0.000000
    12  H    0.002655  -0.000032  -0.000028   0.000133   0.000000   0.000000
    13  H   -0.000108  -0.000086   0.000003   0.000008   0.000000   0.000000
    14  C   -0.041445  -0.041378   0.003722  -0.002602   0.000000   0.000000
    15  H   -0.003903  -0.003496  -0.000063  -0.000102   0.000000   0.000000
    16  H    0.004208  -0.003058  -0.000080   0.000063   0.000000   0.000000
    17  C    0.404100   0.403892  -0.037093  -0.032004   0.000000   0.000000
    18  C   -0.045881  -0.038817   0.396587   0.394540   0.000000  -0.000006
    19  C    0.000000   0.000000   0.000000  -0.000001  -0.042730  -0.041536
    20  C    0.000000   0.000000   0.000000  -0.000002   0.403308   0.398690
    21  C    0.000000   0.000000   0.000000  -0.000009  -0.042718  -0.036483
    22  H    0.000000   0.000000   0.000000   0.000000  -0.003903   0.004208
    23  H    0.000000   0.000000   0.000000   0.000001  -0.003496  -0.003058
    24  C    0.000001  -0.000003  -0.000083   0.000021   0.004175  -0.003638
    25  H    0.000000   0.000001  -0.000010   0.000001  -0.000102   0.000063
    26  H    0.000000   0.000000   0.000007  -0.000010  -0.000063  -0.000080
    27  C   -0.000027  -0.000014  -0.002346   0.000171   0.000012   0.001127
    28  C    0.004755  -0.004485  -0.041388  -0.040392   0.000003   0.000070
    29  O    0.000042   0.002366   0.001070   0.002153   0.000000  -0.000001
    30  O   -0.000001  -0.000006   0.000968   0.000604   0.000036   0.002933
    31  H    0.551476  -0.028979  -0.002947  -0.003072   0.000000   0.000000
    32  H   -0.028979   0.534794  -0.003586   0.003893   0.000000   0.000000
    33  H   -0.002947  -0.003586   0.522571  -0.028937   0.000000   0.000000
    34  H   -0.003072   0.003893  -0.028937   0.501936   0.000000   0.000011
    35  H    0.000000   0.000000   0.000000   0.000000   0.553648  -0.028967
    36  H    0.000000   0.000000   0.000000   0.000011  -0.028967   0.522675
    37  H    0.000000   0.000000   0.000000   0.000000  -0.004554  -0.000689
    38  H    0.000000   0.000000   0.000000   0.000000  -0.001107   0.003801
             37         38
     1  C   -0.044046  -0.049246
     2  C    0.001305  -0.001088
     3  C   -0.000107   0.000291
     4  C   -0.000001  -0.000013
     5  C   -0.000019  -0.000051
     6  C   -0.002493   0.003419
     7  H   -0.000002   0.003008
     8  H    0.000002  -0.000007
     9  H   -0.000002   0.000002
    10  H    0.001184  -0.000003
    11  C    0.000000   0.000000
    12  H    0.000000   0.000000
    13  H    0.000000   0.000000
    14  C    0.000000   0.000000
    15  H    0.000000   0.000000
    16  H    0.000000   0.000000
    17  C    0.000000   0.000000
    18  C    0.000000   0.000000
    19  C    0.406868   0.402228
    20  C   -0.043992  -0.039027
    21  C    0.003773  -0.002600
    22  H   -0.000108   0.002655
    23  H   -0.000086  -0.000032
    24  C   -0.000068  -0.000008
    25  H    0.000008   0.000133
    26  H    0.000003  -0.000028
    27  C   -0.000011   0.000049
    28  C    0.000000   0.000000
    29  O    0.000000   0.000000
    30  O   -0.000001  -0.000003
    31  H    0.000000   0.000000
    32  H    0.000000   0.000000
    33  H    0.000000   0.000000
    34  H    0.000000   0.000000
    35  H   -0.004554  -0.001107
    36  H   -0.000689   0.003801
    37  H    0.535011  -0.026851
    38  H   -0.026851   0.537532
 Mulliken atomic charges:
              1
     1  C    0.029197
     2  C   -0.228412
     3  C   -0.204028
     4  C    0.029197
     5  C   -0.228412
     6  C   -0.204028
     7  H    0.193622
     8  H    0.197139
     9  H    0.193622
    10  H    0.197139
    11  C   -0.341728
    12  H    0.166946
    13  H    0.174875
    14  C   -0.321221
    15  H    0.161126
    16  H    0.182873
    17  C   -0.309526
    18  C   -0.383697
    19  C   -0.341728
    20  C   -0.321221
    21  C   -0.309526
    22  H    0.161515
    23  H    0.175056
    24  C   -0.383697
    25  H    0.201754
    26  H    0.191457
    27  C    0.300520
    28  C    0.300521
    29  O   -0.347468
    30  O   -0.347468
    31  H    0.161515
    32  H    0.175056
    33  H    0.191457
    34  H    0.201754
    35  H    0.161126
    36  H    0.182873
    37  H    0.174875
    38  H    0.166946
 Sum of Mulliken atomic charges =   0.00000
 Mulliken charges with hydrogens summed into heavy atoms:
              1
     1  C    0.029197
     2  C   -0.034790
     3  C   -0.006889
     4  C    0.029197
     5  C   -0.034790
     6  C   -0.006889
    11  C    0.000093
    14  C    0.022778
    17  C    0.027044
    18  C    0.009513
    19  C    0.000093
    20  C    0.022778
    21  C    0.027044
    24  C    0.009513
    27  C    0.300520
    28  C    0.300521
    29  O   -0.347468
    30  O   -0.347468
 Sum of Mulliken charges with hydrogens summed into heavy atoms =   0.00000
 Electronic spatial extent (au):  <R**2>=           4041.2663
 Charge=              0.0000 electrons
 Dipole moment (field-independent basis, Debye):
    X=              0.0000    Y=              0.0000    Z=             -0.6756  Tot=              0.6756
 Quadrupole moment (field-independent basis, Debye-Ang):
   XX=           -103.1076   YY=           -105.0176   ZZ=           -113.5870
   XY=             -5.3835   XZ=              0.0000   YZ=              0.0000
 Traceless Quadrupole moment (field-independent basis, Debye-Ang):
   XX=              4.1298   YY=              2.2198   ZZ=             -6.3496
   XY=             -5.3835   XZ=              0.0000   YZ=              0.0000
 Octapole moment (field-independent basis, Debye-Ang**2):
  XXX=              0.0000  YYY=              0.0000  ZZZ=             34.0950  XYY=              0.0000
  XXY=              0.0000  XXZ=              0.3099  XZZ=              0.0000  YZZ=              0.0000
  YYZ=             -7.1499  XYZ=            -10.5831
 Hexadecapole moment (field-independent basis, Debye-Ang**3):
 XXXX=          -1148.2732 YYYY=          -2596.4847 ZZZZ=          -1732.3436 XXXY=            515.0434
 XXXZ=              0.0000 YYYX=            504.6650 YYYZ=              0.0000 ZZZX=              0.0000
 ZZZY=              0.0000 XXYY=           -632.9399 XXZZ=           -473.7870 YYZZ=           -721.8645
 XXYZ=              0.0000 YYXZ=              0.0000 ZZXY=            158.7651
 N-N= 1.385408852613D+03 E-N=-4.563828248071D+03  KE= 7.671628195657D+02

 Test job not archived.
 1\1\GINC-GGROENH\SP\CASSCF\6-31G(d)\C16H20O2\GGROENH\03-Nov-2011\2\\# 
 casscf(14,12,nroot=4,stateaverage)/6-31g(d) geom=(check,connectivity) 
 test guess=(read,alter) iop(5/7=512)\\Title Card Required\\0,1\C,0,0.0
 571933,-1.40958699,-1.68474899\C,0,1.21463925,-0.64423743,-1.75183502\
 C,0,1.15968496,0.73915364,-1.74589404\C,0,-0.0571933,1.40958699,-1.684
 74899\C,0,-1.21463925,0.64423743,-1.75183502\C,0,-1.15968496,-0.739153
 64,-1.74589404\H,0,2.17488764,-1.13106861,-1.75604503\H,0,2.07872365,1
 .2991695,-1.74283806\H,0,-2.17488764,1.13106861,-1.75604503\H,0,-2.078
 72365,-1.2991695,-1.74283806\C,0,-0.10011535,2.9093672,-1.47069405\H,0
 ,-1.12244692,3.26523847,-1.56641804\H,0,0.46754224,3.39817349,-2.25839
 606\C,0,0.48895622,3.36120349,-0.11657806\H,0,0.69652954,4.42604223,-0
 .18832708\H,0,1.44746263,2.87944631,0.03503893\C,0,-0.37914499,3.17626
 858,1.14083395\C,0,-0.86967372,1.76846519,1.50292098\C,0,0.10011535,-2
 .9093672,-1.47069405\C,0,-0.48895622,-3.36120349,-0.11657806\C,0,0.379
 14499,-3.17626858,1.14083395\H,0,1.26356838,-3.80261045,1.04877302\H,0
 ,-0.18527832,-3.56947565,1.98043704\C,0,0.86967372,-1.76846519,1.50292
 098\H,0,1.56738637,-1.38228783,0.77536699\H,0,1.43081085,-1.81876264,2
 .43470799\C,0,-0.21653482,-0.74058961,1.726296\C,0,0.21653482,0.740589
 61,1.726296\O,0,1.35553534,1.00615445,1.95448696\O,0,-1.35553534,-1.00
 615445,1.95448696\H,0,-1.26356838,3.80261045,1.04877302\H,0,0.18527832
 ,3.56947565,1.98043704\H,0,-1.43081085,1.81876264,2.43470799\H,0,-1.56
 738637,1.38228783,0.77536699\H,0,-0.69652954,-4.42604223,-0.18832708\H
 ,0,-1.44746263,-2.87944631,0.03503893\H,0,-0.46754224,-3.39817349,-2.2
 5839606\H,0,1.12244692,-3.26523847,-1.56641804\\55,62\54,61\52,60\70,7
 2\71,97\\Version=EM64L-G09RevA.02\State=1-A\HF=-767.2058337\RMSD=0.000
 e+00\Dipole=0.,0.,-0.265809\Quadrupole=-0.4768685,5.1976208,-4.7207523
 ,-2.911061,0.0000003,0.0000001\PG=C02 [X(C16H20O2)]\\@


 IN SO FAR AS QUANTUM MECHANICS IS CORRECT, CHEMICAL 
 QUESTIONS ARE PROBLEMS IN APPLIED MATHEMATICS.

                    -- EYRING, WALTER, & KIMBALL, 1944
 Job cpu time:  1 days  0 hours 19 minutes 28.3 seconds.
 File lengths (MBytes):  RWF=   2581 Int=      0 D2E=      0 Chk=      4 Scr=      1
 Normal termination of Gaussian 09 at Thu Nov  3 16:49:10 2011.
