 Entering Gaussian System, Link 0=g09
 Input=P44.com
 Output=P44.log
 Initial command:
 /home/ggroenh/g09/l1.exe /home/ggroenh/EET/P44/trans/conf_B/sym/SA_0_0.3/Gau-30056.inp -scrdir=/home/ggroenh/EET/P44/trans/conf_B/sym/SA_0_0.3/
 Entering Link 1 = /home/ggroenh/g09/l1.exe PID=     30057.
  
 Copyright (c) 1988,1990,1992,1993,1995,1998,2003,2009, Gaussian, Inc.
                  All Rights Reserved.
  
 This is part of the Gaussian(R) 09 program.  It is based on
 the Gaussian(R) 03 system (copyright 2003, Gaussian, Inc.),
 the Gaussian(R) 98 system (copyright 1998, Gaussian, Inc.),
 the Gaussian(R) 94 system (copyright 1995, Gaussian, Inc.),
 the Gaussian 92(TM) system (copyright 1992, Gaussian, Inc.),
 the Gaussian 90(TM) system (copyright 1990, Gaussian, Inc.),
 the Gaussian 88(TM) system (copyright 1988, Gaussian, Inc.),
 the Gaussian 86(TM) system (copyright 1986, Carnegie Mellon
 University), and the Gaussian 82(TM) system (copyright 1983,
 Carnegie Mellon University). Gaussian is a federally registered
 trademark of Gaussian, Inc.
  
 This software contains proprietary and confidential information,
 including trade secrets, belonging to Gaussian, Inc.
  
 This software is provided under written license and may be
 used, copied, transmitted, or stored only in accord with that
 written license.
  
 The following legend is applicable only to US Government
 contracts under FAR:
  
                    RESTRICTED RIGHTS LEGEND
  
 Use, reproduction and disclosure by the US Government is
 subject to restrictions as set forth in subparagraphs (a)
 and (c) of the Commercial Computer Software - Restricted
 Rights clause in FAR 52.227-19.
  
 Gaussian, Inc.
 340 Quinnipiac St., Bldg. 40, Wallingford CT 06492
  
  
 ---------------------------------------------------------------
 Warning -- This program may not be used in any manner that
 competes with the business of Gaussian, Inc. or will provide
 assistance to any competitor of Gaussian, Inc.  The licensee
 of this program is prohibited from giving any competitor of
 Gaussian, Inc. access to this program.  By using this program,
 the user acknowledges that Gaussian, Inc. is engaged in the
 business of creating and licensing software in the field of
 computational chemistry and represents and warrants to the
 licensee that it is not a competitor of Gaussian, Inc. and that
 it will not use this program in any manner prohibited above.
 ---------------------------------------------------------------
  

 Cite this work as:
 Gaussian 09, Revision A.02,
 M. J. Frisch, G. W. Trucks, H. B. Schlegel, G. E. Scuseria, 
 M. A. Robb, J. R. Cheeseman, G. Scalmani, V. Barone, B. Mennucci, 
 G. A. Petersson, H. Nakatsuji, M. Caricato, X. Li, H. P. Hratchian, 
 A. F. Izmaylov, J. Bloino, G. Zheng, J. L. Sonnenberg, M. Hada, 
 M. Ehara, K. Toyota, R. Fukuda, J. Hasegawa, M. Ishida, T. Nakajima, 
 Y. Honda, O. Kitao, H. Nakai, T. Vreven, J. A. Montgomery, Jr., 
 J. E. Peralta, F. Ogliaro, M. Bearpark, J. J. Heyd, E. Brothers, 
 K. N. Kudin, V. N. Staroverov, R. Kobayashi, J. Normand, 
 K. Raghavachari, A. Rendell, J. C. Burant, S. S. Iyengar, J. Tomasi, 
 M. Cossi, N. Rega, J. M. Millam, M. Klene, J. E. Knox, J. B. Cross, 
 V. Bakken, C. Adamo, J. Jaramillo, R. Gomperts, R. E. Stratmann, 
 O. Yazyev, A. J. Austin, R. Cammi, C. Pomelli, J. W. Ochterski, 
 R. L. Martin, K. Morokuma, V. G. Zakrzewski, G. A. Voth, 
 P. Salvador, J. J. Dannenberg, S. Dapprich, A. D. Daniels, 
 O. Farkas, J. B. Foresman, J. V. Ortiz, J. Cioslowski, 
 and D. J. Fox, Gaussian, Inc., Wallingford CT, 2009.
 
 ******************************************
 Gaussian 09:  EM64L-G09RevA.02 11-Jun-2009
                 3-Nov-2011 
 ******************************************
 %chk=P44.chk
 %mem=400MW
 %nprocshared=8
 Will use up to    8 processors via shared memory.
 ----------------------------------------------------------------------
 # casscf(14,12,nroot=4,stateaverage)/6-31g(d) geom=(check,connectivity
 ) test guess=read iop(5/7=512)
 ----------------------------------------------------------------------
 1/29=2,38=1,57=2/1;
 2/12=2,40=1/2;
 3/5=1,6=6,7=1,14=-4,16=1,25=1,32=1,116=101/1,2,3;
 4/5=1,17=14,18=12/1,5;
 5/5=2,7=512,17=10000000,28=4,38=6/10;
 6/7=2,8=2,9=2,10=2,28=1/1;
 99/5=1,9=1/99;
 -------------------
 Title Card Required
 -------------------
 Z-Matrix taken from the checkpoint file:
 P44.chk
 Charge =  0 Multiplicity = 1
 C,0,0.0571933,-1.40958699,-1.68474899
 C,0,1.21463925,-0.64423743,-1.75183502
 C,0,1.15968496,0.73915364,-1.74589404
 C,0,-0.0571933,1.40958699,-1.68474899
 C,0,-1.21463925,0.64423743,-1.75183502
 C,0,-1.15968496,-0.73915364,-1.74589404
 H,0,2.17488764,-1.13106861,-1.75604503
 H,0,2.07872365,1.2991695,-1.74283806
 H,0,-2.17488764,1.13106861,-1.75604503
 H,0,-2.07872365,-1.2991695,-1.74283806
 C,0,-0.10011535,2.9093672,-1.47069405
 H,0,-1.12244692,3.26523847,-1.56641804
 H,0,0.46754224,3.39817349,-2.25839606
 C,0,0.48895622,3.36120349,-0.11657806
 H,0,0.69652954,4.42604223,-0.18832708
 H,0,1.44746263,2.87944631,0.03503893
 C,0,-0.37914499,3.17626858,1.14083395
 C,0,-0.86967372,1.76846519,1.50292098
 C,0,0.10011535,-2.9093672,-1.47069405
 C,0,-0.48895622,-3.36120349,-0.11657806
 C,0,0.37914499,-3.17626858,1.14083395
 H,0,1.26356838,-3.80261045,1.04877302
 H,0,-0.18527832,-3.56947565,1.98043704
 C,0,0.86967372,-1.76846519,1.50292098
 H,0,1.56738637,-1.38228783,0.77536699
 H,0,1.43081085,-1.81876264,2.43470799
 C,0,-0.21653482,-0.74058961,1.726296
 C,0,0.21653482,0.74058961,1.726296
 O,0,1.35553534,1.00615445,1.95448696
 O,0,-1.35553534,-1.00615445,1.95448696
 H,0,-1.26356838,3.80261045,1.04877302
 H,0,0.18527832,3.56947565,1.98043704
 H,0,-1.43081085,1.81876264,2.43470799
 H,0,-1.56738637,1.38228783,0.77536699
 H,0,-0.69652954,-4.42604223,-0.18832708
 H,0,-1.44746263,-2.87944631,0.03503893
 H,0,-0.46754224,-3.39817349,-2.25839606
 H,0,1.12244692,-3.26523847,-1.56641804
                          Input orientation:                          
 ---------------------------------------------------------------------
 Center     Atomic      Atomic             Coordinates (Angstroms)
 Number     Number       Type             X           Y           Z
 ---------------------------------------------------------------------
      1          6           0        0.057193   -1.409587   -1.684749
      2          6           0        1.214639   -0.644237   -1.751835
      3          6           0        1.159685    0.739154   -1.745894
      4          6           0       -0.057193    1.409587   -1.684749
      5          6           0       -1.214639    0.644237   -1.751835
      6          6           0       -1.159685   -0.739154   -1.745894
      7          1           0        2.174888   -1.131069   -1.756045
      8          1           0        2.078724    1.299170   -1.742838
      9          1           0       -2.174888    1.131069   -1.756045
     10          1           0       -2.078724   -1.299169   -1.742838
     11          6           0       -0.100115    2.909367   -1.470694
     12          1           0       -1.122447    3.265238   -1.566418
     13          1           0        0.467542    3.398173   -2.258396
     14          6           0        0.488956    3.361203   -0.116578
     15          1           0        0.696530    4.426042   -0.188327
     16          1           0        1.447463    2.879446    0.035039
     17          6           0       -0.379145    3.176269    1.140834
     18          6           0       -0.869674    1.768465    1.502921
     19          6           0        0.100115   -2.909367   -1.470694
     20          6           0       -0.488956   -3.361203   -0.116578
     21          6           0        0.379145   -3.176269    1.140834
     22          1           0        1.263568   -3.802610    1.048773
     23          1           0       -0.185278   -3.569476    1.980437
     24          6           0        0.869674   -1.768465    1.502921
     25          1           0        1.567386   -1.382288    0.775367
     26          1           0        1.430811   -1.818763    2.434708
     27          6           0       -0.216535   -0.740590    1.726296
     28          6           0        0.216535    0.740590    1.726296
     29          8           0        1.355535    1.006154    1.954487
     30          8           0       -1.355535   -1.006154    1.954487
     31          1           0       -1.263568    3.802610    1.048773
     32          1           0        0.185278    3.569476    1.980437
     33          1           0       -1.430811    1.818763    2.434708
     34          1           0       -1.567386    1.382288    0.775367
     35          1           0       -0.696530   -4.426042   -0.188327
     36          1           0       -1.447463   -2.879446    0.035039
     37          1           0       -0.467542   -3.398173   -2.258396
     38          1           0        1.122447   -3.265238   -1.566418
 ---------------------------------------------------------------------
                    Distance matrix (angstroms):
                    1          2          3          4          5
     1  C    0.000000
     2  C    1.389223   0.000000
     3  C    2.415846   1.384495   0.000000
     4  C    2.821494   2.416662   1.390688   0.000000
     5  C    2.416662   2.749829   2.376228   1.389223   0.000000
     6  C    1.390688   2.376228   2.750431   2.415846   1.384495
     7  H    2.137121   1.076615   2.128020   3.382632   3.826307
     8  H    3.380432   2.126865   1.076225   2.139558   3.357865
     9  H    3.382632   3.826307   3.357540   2.137121   1.076615
    10  H    2.139558   3.357865   3.826495   3.380432   2.126865
    11  C    4.327116   3.799438   2.524413   1.515587   2.540082
    12  H    4.822815   4.558547   3.409024   2.142944   2.629168
    13  H    4.859220   4.141961   2.795015   2.135157   3.266574
    14  C    5.040439   4.386826   3.159065   2.562469   3.599751
    15  H    6.058267   5.331110   4.029104   3.450562   4.516544
    16  H    4.825591   3.957710   2.799177   2.717011   3.908435
    17  C    5.404108   5.050143   4.079305   3.347945   3.934052
    18  C    4.595687   4.556197   3.966431   3.309102   3.460683
    19  C    1.515587   2.540082   3.809216   4.327116   3.799438
    20  C    2.562469   3.599751   4.710161   5.040439   4.386826
    21  C    3.347945   3.934052   4.926761   5.404108   5.050143
    22  H    3.828060   4.221507   5.333721   6.031878   5.810282
    23  H    4.261162   4.944355   5.853098   6.183936   5.722309
    24  C    3.309102   3.460683   4.114251   4.595687   4.556197
    25  H    2.886797   2.656294   3.320164   4.060295   4.270038
    26  H    4.361671   4.353548   4.908552   5.441169   5.530996
    27  C    3.486791   3.762305   4.017428   4.035329   3.874449
    28  C    4.035329   3.874449   3.598005   3.486791   3.762305
    29  O    4.556922   4.059614   3.715167   3.924614   4.524777
    30  O    3.924614   4.524777   4.802630   4.556922   4.059614
    31  H    6.031878   5.810282   4.802821   3.828060   4.221507
    32  H    6.183936   5.722309   4.779721   4.261162   4.944355
    33  H    5.441169   5.530996   5.035242   4.361671   4.353548
    34  H    4.060295   4.270038   3.769257   2.886797   2.656294
    35  H    3.450562   4.516544   5.705330   6.058267   5.331110
    36  H    2.717011   3.908435   4.802417   4.825591   3.957710
    37  H    2.135157   3.266574   4.475266   4.859220   4.141961
    38  H    2.142944   2.629168   4.008585   4.822815   4.558547
                    6          7          8          9         10
     6  C    0.000000
     7  H    3.357540   0.000000
     8  H    3.826495   2.432176   0.000000
     9  H    2.128020   4.902837   4.256952   0.000000
    10  H    1.076225   4.256952   4.902625   2.432176   0.000000
    11  C    3.809216   4.645663   2.722892   2.747444   4.658405
    12  H    4.008585   5.498717   3.760857   2.387105   4.666841
    13  H    4.475266   4.866356   2.695834   3.517749   5.367895
    14  C    4.710161   5.070574   3.069864   3.841538   5.563882
    15  H    5.705330   5.960265   3.755569   4.643235   6.549548
    16  H    4.802417   4.452118   2.461018   4.402979   5.749406
    17  C    4.926761   5.785166   4.228497   3.974851   5.588710
    18  C    4.114251   5.319540   4.410016   3.568013   4.626785
    19  C    2.524413   2.747444   4.658405   4.645663   2.722892
    20  C    3.159065   3.841538   5.563882   5.070574   3.069864
    21  C    4.079305   3.974851   5.588710   5.785166   4.228497
    22  H    4.802821   3.979277   5.872455   6.635599   5.023069
    23  H    4.779721   5.047525   6.533926   6.325738   4.754177
    24  C    3.966431   3.568013   4.626785   5.319540   4.410016
    25  H    3.769257   2.615381   3.713898   5.170070   4.431973
    26  H    5.035242   4.311494   5.252921   6.266177   5.480757
    27  C    3.598005   4.242414   4.632895   4.411910   3.976764
    28  C    4.017428   4.411910   3.976764   4.242414   4.632895
    29  O    4.802630   4.359714   3.778766   5.123235   5.547870
    30  O    3.715167   5.123235   5.547870   4.359714   3.778766
    31  H    5.333721   6.635599   5.023069   3.979277   5.872455
    32  H    5.853098   6.325738   4.754177   5.047525   6.533926
    33  H    4.908552   6.266177   5.480757   4.311494   5.252921
    34  H    3.320164   5.170070   4.431973   2.615381   3.713898
    35  H    4.029104   4.643235   6.549548   5.960265   3.755569
    36  H    2.799177   4.402979   5.749406   4.452118   2.461018
    37  H    2.795015   3.517749   5.367895   4.866356   2.695834
    38  H    3.409024   2.387105   4.666841   5.498717   3.760857
                   11         12         13         14         15
    11  C    0.000000
    12  H    1.086724   0.000000
    13  H    1.087033   1.739129   0.000000
    14  C    1.544277   2.169762   2.142244   0.000000
    15  H    2.139956   2.560327   2.322528   1.087252   0.000000
    16  H    2.159427   3.052529   2.547384   1.083426   1.733710
    17  C    2.639919   2.808848   3.510112   1.539118   2.117942
    18  C    3.276624   3.424188   4.311798   2.646784   3.517958
    19  C    5.822178   6.295203   6.367146   6.426888   7.470502
    20  C    6.426888   6.812715   7.154820   6.793163   7.877291
    21  C    6.639633   7.146818   7.401748   6.658204   7.724152
    22  H    7.297807   7.904858   7.963813   7.299198   8.340424
    23  H    7.341183   7.757047   8.181810   7.272302   8.331232
    24  C    5.627166   6.223147   6.403387   5.392701   6.423568
    25  H    5.122856   5.858213   5.767685   4.945633   5.951789
    26  H    6.320689   6.955228   7.083046   5.850487   6.813007
    27  C    4.853502   5.263962   5.785766   4.551770   5.585119
    28  C    3.876159   4.359896   4.796199   3.215278   4.180758
    29  O    4.180072   4.862163   4.925309   3.253694   4.089202
    30  O    5.351566   5.540388   6.361611   5.173517   6.189619
    31  H    2.915342   2.673557   3.754688   2.150401   2.400222
    32  H    3.525266   3.792478   4.251673   2.129101   2.387179
    33  H    4.267591   4.265723   5.303160   3.545940   4.266591
    34  H    3.087012   3.037669   4.172343   2.990020   3.913881
    35  H    7.470502   7.825365   8.176711   7.877291   8.961027
    36  H    6.131308   6.358258   6.952381   6.535933   7.616873
    37  H    6.367146   6.731181   6.860373   7.154820   8.176711
    38  H    6.295203   6.905554   6.731181   6.812715   7.825365
                   16         17         18         19         20
    16  H    0.000000
    17  C    2.155779   0.000000
    18  C    2.959405   1.534156   0.000000
    19  C    6.131308   6.639633   5.627166   0.000000
    20  C    6.535933   6.658204   5.392701   1.544277   0.000000
    21  C    6.247861   6.397635   5.112832   2.639919   1.539118
    22  H    6.761017   7.170198   5.982797   2.915342   2.150401
    23  H    6.931018   6.800558   5.402780   3.525266   2.129101
    24  C    4.908319   5.112832   3.941473   3.276624   2.646784
    25  H    4.327221   4.970210   4.049178   3.087012   2.990020
    26  H    5.275591   5.468125   4.362185   4.267591   3.545940
    27  C    4.328267   3.963709   2.602276   3.876159   3.215278
    28  C    2.991695   2.574904   1.512043   4.853502   4.551770
    29  O    2.683646   2.894917   2.395117   5.351566   5.173517
    30  O    5.161296   4.371273   2.852803   4.180072   3.253694
    31  H    3.038022   1.087651   2.121120   7.297807   7.299198
    32  H    2.419468   1.085412   2.141164   7.341183   7.272302
    33  H    3.894601   2.150101   1.088867   6.320689   5.850487
    34  H    3.446576   2.182625   1.079477   5.122856   4.945633
    35  H    7.616873   7.724152   6.423568   2.139956   1.087252
    36  H    6.445575   6.247861   4.908319   2.159427   1.083426
    37  H    6.952381   7.401748   6.403387   1.087033   2.142244
    38  H    6.358258   7.146818   6.223147   1.086724   2.169762
                   21         22         23         24         25
    21  C    0.000000
    22  H    1.087651   0.000000
    23  H    1.085412   1.738248   0.000000
    24  C    1.534156   2.121120   2.141164   0.000000
    25  H    2.182625   2.454591   3.050872   1.079477   0.000000
    26  H    2.150101   2.425786   2.425511   1.088867   1.721213
    27  C    2.574904   3.467811   2.840451   1.512043   2.120947
    28  C    3.963709   4.711261   4.336208   2.602276   2.689921
    29  O    4.371273   4.894180   4.828164   2.852803   2.672052
    30  O    2.894917   3.937028   2.817941   2.395117   3.174157
    31  H    7.170198   8.014100   7.508553   5.982797   5.913732
    32  H    6.800558   7.508553   7.148562   5.402780   5.280377
    33  H    5.468125   6.385948   5.548948   4.362185   4.689277
    34  H    4.970210   5.913732   5.280377   4.049178   4.179674
    35  H    2.117942   2.400222   2.387179   3.517958   3.913881
    36  H    2.155779   3.038022   2.419468   2.959405   3.446576
    37  H    3.510112   3.754688   4.251673   4.311798   4.172343
    38  H    2.808848   2.673557   3.792478   3.424188   3.037669
                   26         27         28         29         30
    26  H    0.000000
    27  C    2.092380   0.000000
    28  C    2.920034   1.543192   0.000000
    29  O    2.866432   2.361057   1.191603   0.000000
    30  O    2.941882   1.191603   2.361057   3.376284   0.000000
    31  H    6.385948   4.711261   3.467811   3.937028   4.894180
    32  H    5.548948   4.336208   2.840451   2.817941   4.828164
    33  H    4.628225   2.920034   2.092380   2.941882   2.866432
    34  H    4.689277   2.689921   2.120947   3.174157   2.672052
    35  H    4.266591   4.180758   5.585119   6.189619   4.089202
    36  H    3.894601   2.991695   4.328267   5.161296   2.683646
    37  H    5.303160   4.796199   5.785766   6.361611   4.925309
    38  H    4.265723   4.359896   5.263962   5.540388   4.862163
                   31         32         33         34         35
    31  H    0.000000
    32  H    1.738248   0.000000
    33  H    2.425786   2.425511   0.000000
    34  H    2.454591   3.050872   1.721213   0.000000
    35  H    8.340424   8.331232   6.813007   5.951789   0.000000
    36  H    6.761017   6.931018   5.275591   4.327221   1.733710
    37  H    7.963813   8.181810   7.083046   5.767685   2.322528
    38  H    7.904858   7.757047   6.955228   5.858213   2.560327
                   36         37         38
    36  H    0.000000
    37  H    2.547384   0.000000
    38  H    3.052529   1.739129   0.000000
 Stoichiometry    C16H20O2
 Framework group  C2[X(C16H20O2)]
 Deg. of freedom    55
 Full point group                 C2      NOp   2
 Largest Abelian subgroup         C2      NOp   2
 Largest concise Abelian subgroup C2      NOp   2
                         Standard orientation:                         
 ---------------------------------------------------------------------
 Center     Atomic      Atomic             Coordinates (Angstroms)
 Number     Number       Type             X           Y           Z
 ---------------------------------------------------------------------
      1          6           0        0.694369   -1.228030   -1.684749
      2          6           0        1.374787   -0.018703   -1.751835
      3          6           0        0.694369    1.187042   -1.745894
      4          6           0       -0.694369    1.228030   -1.684749
      5          6           0       -1.374787    0.018703   -1.751835
      6          6           0       -0.694369   -1.187042   -1.745894
      7          1           0        2.451381   -0.013489   -1.756045
      8          1           0        1.256407    2.104845   -1.742838
      9          1           0       -2.451381    0.013489   -1.756045
     10          1           0       -1.256407   -2.104845   -1.742838
     11          6           0       -1.417214    2.542822   -1.470694
     12          1           0       -2.489261    2.392749   -1.566418
     13          1           0       -1.135300    3.236862   -2.258396
     14          6           0       -1.099370    3.213744   -0.116578
     15          1           0       -1.400792    4.255912   -0.188327
     16          1           0       -0.026643    3.222677    0.035039
     17          6           0       -1.787315    2.652912    1.140834
     18          6           0       -1.581080    1.176431    1.502921
     19          6           0        1.417214   -2.542822   -1.470694
     20          6           0        1.099370   -3.213744   -0.116578
     21          6           0        1.787315   -2.652912    1.140834
     22          1           0        2.860133   -2.806438    1.048773
     23          1           0        1.464636   -3.260418    1.980437
     24          6           0        1.581080   -1.176431    1.502921
     25          1           0        2.025557   -0.514331    0.775367
     26          1           0        2.103296   -0.965020    2.434708
     27          6           0        0.145427   -0.757767    1.726296
     28          6           0       -0.145427    0.757767    1.726296
     29          8           0        0.746734    1.514005    1.954487
     30          8           0       -0.746734   -1.514005    1.954487
     31          1           0       -2.860133    2.806438    1.048773
     32          1           0       -1.464636    3.260418    1.980437
     33          1           0       -2.103296    0.965020    2.434708
     34          1           0       -2.025557    0.514331    0.775367
     35          1           0        1.400792   -4.255912   -0.188327
     36          1           0        0.026643   -3.222677    0.035039
     37          1           0        1.135300   -3.236862   -2.258396
     38          1           0        2.489261   -2.392749   -1.566418
 ---------------------------------------------------------------------
 Rotational constants (GHZ):      0.6387323      0.3966497      0.3012929
 Standard basis: 6-31G(d) (6D, 7F)
 There are   155 symmetry adapted basis functions of A   symmetry.
 There are   155 symmetry adapted basis functions of B   symmetry.
 Integral buffers will be    131072 words long.
 Regular integral format.
 Two-electron integral symmetry is turned off.
   310 basis functions,   584 primitive gaussians,   310 cartesian basis functions
    66 alpha electrons       66 beta electrons
       nuclear repulsion energy      1385.4088526127 Hartrees.
 NAtoms=   38 NActive=   38 NUniq=   19 SFac= 3.00D+00 NAtFMM=   80 NAOKFM=F Big=F
 One-electron integrals computed using PRISM.
 The smallest eigenvalue of the overlap matrix is  3.952D-04
 NBasis=   310 RedAO= F  NBF=   155   155
 NBsUse=   310 1.00D-04 NBFU=   155   155
 Initial guess read from the checkpoint file:  P44.chk
 B after Tr=     0.000000    0.000000    0.000000
         Rot=    1.000000    0.000000    0.000000    0.000000 Ang=   0.00 deg.
 Initial guess orbital symmetries:
       Occupied  (A) (B) (A) (B) (B) (A) (B) (A) (A) (B) (A) (B)
                 (B) (A) (B) (A) (B) (A) (A) (B) (A) (B) (A) (B)
                 (A) (B) (B) (A) (B) (A) (A) (B) (A) (A) (B) (A)
                 (A) (B) (B) (A) (B) (B) (A) (B) (A) (B) (A) (B)
                 (A) (B) (B) (A) (A) (B) (A) (A) (A) (B) (B) (A)
                 (B) (B) (A) (A) (B) (B)
       Virtual   (A) (A) (A) (B) (B) (B) (A) (B) (A) (B) (A) (B)
                 (B) (A) (B) (A) (A) (A) (B) (B) (B) (A) (B) (B)
                 (A) (A) (A) (B) (B) (A) (A) (B) (A) (B) (A) (B)
                 (A) (B) (A) (B) (A) (B) (A) (B) (B) (A) (B) (A)
                 (A) (A) (B) (A) (B) (B) (A) (B) (A) (B) (B) (A)
                 (A) (B) (A) (B) (A) (B) (A) (A) (B) (A) (A) (B)
                 (A) (B) (B) (A) (B) (A) (B) (A) (B) (A) (B) (B)
                 (A) (B) (B) (A) (B) (B) (A) (A) (B) (A) (A) (B)
                 (A) (B) (A) (B) (A) (B) (A) (A) (B) (B) (A) (B)
                 (A) (B) (B) (A) (B) (A) (A) (B) (B) (A) (A) (A)
                 (B) (B) (B) (A) (B) (A) (B) (A) (A) (B) (A) (A)
                 (A) (A) (B) (A) (B) (B) (B) (A) (A) (B) (A) (B)
                 (A) (B) (B) (A) (A) (B) (A) (B) (A) (B) (A) (A)
                 (B) (B) (B) (A) (B) (B) (A) (A) (B) (B) (A) (A)
                 (B) (B) (A) (B) (A) (A) (B) (A) (B) (A) (B) (A)
                 (A) (B) (B) (A) (B) (B) (B) (A) (A) (B) (B) (A)
                 (A) (B) (B) (A) (A) (B) (B) (B) (A) (B) (A) (B)
                 (A) (A) (B) (A) (B) (A) (B) (A) (A) (B) (B) (A)
                 (A) (B) (A) (B) (A) (B) (A) (A) (B) (B) (A) (B)
                 (A) (B) (A) (B) (A) (B) (B) (A) (A) (B) (A) (B)
                 (A) (A) (B) (B)
 In MySME. ITyp,IWrit    1    0
 In MySME. ITyp,IWrit    1    0

 Total number of active electrons   14
 Total number of active orbitals    12
 Number of Alpha electrons           7
 Number of Beta electrons            7
 IEnd,MeIgot for IE vector         7 419430393
  Number of Alpha strings                 792
  Number of Beta  strings                 792
 Number of configurations              314028
 SME calculated on fly
 RWF file will be        16          Words long
 Len28=          16 LenMCI=          30.
 Enter MCSCF program.
 NO. OF ORBITALS =310     NO. OF CORE-ORBITALS = 59
 NO. OF VALENCE-ORBITALS = 12      NO. OF VIRTUAL-ORBITALS =239
 USED ACCURACY IN CHECKING CONVERGENCE =  1.00D-08
  InCore calculation needs more space:              1355386495
  In this calculation the integrals will be calculated in every iteration
  and Contracted with The Density Matrices
 Do   4 iterations with Incremental Fock Matrices and then one Full.
 IBUJAK length=                 7616390
 Symmetry not used in FoFDir.
 MinBra= 0 MaxBra= 2 Meth= 1.
 IRaf=     -80 NMat=  79 IRICut=       1 DoRegI=T DoRafI=F ISym2E= 0 JSym2E=0.
 In Davids. NSec=    314028
 IMaxHF,MaxMI,MSekIn,IFactt,WhenSc,nroot    5  200    8    2    2    4
 DiagDN has N=   500 LTot=  1530 but NE2=   249 cannot use DSYEVD.
 Store on disk first   8 roots
          (  1)     Eigenvalue  -767.306920080    
 (       1) 0.9667952 (      10)-0.1216946 (   32131)-0.1190047 (    9181)-0.0846706 (    8259)-0.0746422 (    8256)-0.0657747 (       6)-0.0613560
 (     121)-0.0523700 (      39)-0.0468486 (    1597) 0.0406486 (  106954)-0.0375985 (    8385)-0.0330015 (    8260)-0.0315964 (       9) 0.0282651
 (   32641) 0.0269680 (     253)-0.0210369 (   31885) 0.0210240 (      31) 0.0207541 (    8384)-0.0186840 (   52651)-0.0175510 (    8131) 0.0170017
 (   41906)-0.0150840 (     232) 0.0105582 (   31903) 0.0100186 (   10586) 0.0093706 (    8132) 0.0092511 (     307) 0.0089294 (     241) 0.0088485
 (      28)-0.0085057 (   31880)-0.0080563 (  107881) 0.0079782 (    8004)-0.0064063 (    8026)-0.0063539 (   32662)-0.0059422 (      32) 0.0050518
 (    1712) 0.0050269 (    8407)-0.0048816 (       8)-0.0048205 (    8008) 0.0047938 (    8383)-0.0045925 (    8647) 0.0044639 (   33154) 0.0044632
 (      46)-0.0044321 (  107012)-0.0041820 (    8258)-0.0039614 (    2702) 0.0038227 (   31881)-0.0038060 (    8010)-0.0037738 (   32389) 0.0036660
 (   34192)-0.0036126 (
          (  2)     Eigenvalue  -767.161933607    
 (     232) 0.9253270 (      46)-0.2187111 (   31885) 0.1530093 (    8386) 0.1353500 (     382) 0.1096360 (   32005)-0.0951713 (   32662)-0.0769467
 (     354) 0.0584590 (   14707) 0.0575626 (   41906)-0.0507127 (    9202)-0.0497034 (   13206)-0.0480667 (    8283) 0.0386210 (    1082)-0.0346322
 (      28)-0.0306475 (     706) 0.0305996 (    1618)-0.0289771 (     742)-0.0272606 (      11)-0.0255418 (  106975) 0.0246533 (   31903)-0.0229861
 (     277)-0.0215624 (   31880) 0.0179590 (    8284) 0.0178085 (     307)-0.0178084 (   13207)-0.0177432 (     381)-0.0174629 (   32641)-0.0163389
 (     355)-0.0149115 (   32131) 0.0140493 (     669)-0.0128378 (       1)-0.0125149 (    2702) 0.0119955 (    8008) 0.0119950 (   13045) 0.0117376
 (     253) 0.0112515 (    8026) 0.0112333 (     254)-0.0107440 (   13044) 0.0106344 (     241) 0.0101625 (   13367)-0.0100060 (    1733) 0.0097163
 (    8156)-0.0092909 (  107902) 0.0081283 (     763)-0.0078324 (    8155)-0.0071323 (    4279) 0.0058255 (  124252) 0.0056416 (   32392)-0.0054187
 (     670)-0.0052595 (
          (  3)     Eigenvalue  -767.110776457    
 (      22) 0.6994074 (    8002)-0.4578642 (     301)-0.4231974 (   31900) 0.2546016 (       2) 0.0919534 (      82) 0.0800700 (    1792) 0.0715486
 (    1621) 0.0684031 (  108367)-0.0610799 (   11477) 0.0602579 (  106978)-0.0594059 (   32647)-0.0572474 (    8782)-0.0536828 (   10156)-0.0526273
 (    1603)-0.0438456 (  106960) 0.0381660 (   31888)-0.0369618 (    8268) 0.0334505 (   32767) 0.0313840 (     238)-0.0296247 (   31879) 0.0238572
 (    8775)-0.0219772 (   36316)-0.0204801 (      37)-0.0199270 (    8655)-0.0187248 (   72391) 0.0171117 (   10015) 0.0169847 (    8017) 0.0155571
 (   32008) 0.0143574 (     233) 0.0133207 (      81)-0.0131615 (   10014) 0.0121496 (   10157)-0.0121375 (      29)-0.0109949 (      70)-0.0096403
 (    8257) 0.0089914 (   32407)-0.0077325 (    8650) 0.0076428 (    8906) 0.0068692 (    1718) 0.0062349 (    8060)-0.0062342 (   31902)-0.0058768
 (    9182)-0.0054972 (   32642)-0.0054307 (     234) 0.0053062 (  107887) 0.0050043 (     352)-0.0045447 (    8278) 0.0042391 (     106)-0.0041888
 (    8150)-0.0040488 (
          (  4)     Eigenvalue  -767.062338550    
 (       4) 0.6709740 (    8257)-0.5306523 (      37)-0.3144254 (       7) 0.2007553 (    8129) 0.1874993 (    8262) 0.1169882 (  107883)-0.1107450
 (    1714)-0.1044182 (  107420)-0.1031839 (    8519) 0.1018096 (    1657)-0.0962488 (       2) 0.0809669 (    8002)-0.0658289 (      22)-0.0531021
 (  107884)-0.0449050 (    1715)-0.0425031 (  107419) 0.0415738 (      29) 0.0404545 (    1656) 0.0395142 (   32643) 0.0197913 (   34454) 0.0195198
 (  106956)-0.0182446 (   32386)-0.0152559 (    9731)-0.0151443 (     373) 0.0138372 (    8313)-0.0119474 (  109279) 0.0114145 (    8007) 0.0113143
 (  106957)-0.0112993 (   13225) 0.0104970 (    8517) 0.0098550 (    8185) 0.0086275 (    1713)-0.0082183 (    2146)-0.0081808 (    1600)-0.0080623
 (      17) 0.0079864 (  111157)-0.0075764 (      27) 0.0072531 (    1605)-0.0071350 (    8782)-0.0069000 (      57) 0.0066919 (  107418)-0.0065459
 (  108007)-0.0064546 (  107882)-0.0064062 (    8134)-0.0061674 (   34981) 0.0061121 (   19504)-0.0058873 (    2629) 0.0057246 (  107543) 0.0056798
 (   32768) 0.0055970 (
 Davidson Disk Diagonalization is being used:
 MVecIn=      8 MSekIn=    8 NVConv=    4 MConv=    4 WhenSc=  2 IFact=    2 FinIt=F
 NRoot=     8 Conv= 0.00D+00 MaxIt=      314028 Dim=      314028 Max sub=   200
 Iteration     1 internal iteration     1 dimension is     8
 Eigenvalues at current iteration:
 Root      1 :  -767.306920080154600
 Root      2 :  -767.161933607359600
 Root      3 :  -767.110776456828800
 Root      4 :  -767.062338550122500
 Root      5 :  -767.003940395717100
 Root      6 :  -766.995752594096100
 Root      7 :  -766.989972066453800
 Root      8 :  -766.988791277446900
 DEMax= 0.00D+00
 State    1 2nd order lowering   -0.102838537119E-03 norm 3.69D-04
 State    2 2nd order lowering   -0.888427531025E-04 norm 3.43D-04
 State    3 2nd order lowering   -0.951145154556E-04 norm 3.55D-04
 State    4 2nd order lowering   -0.137834951704E-03 norm 4.27D-04
 State    5 2nd order lowering   -0.704591478966E-04 norm 3.06D-04
 State    6 2nd order lowering   -0.745863281360E-04 norm 3.14D-04
 State    7 2nd order lowering   -0.831544172945E-04 norm 3.32D-04
 State    8 2nd order lowering   -0.106211004298E-03 norm 3.75D-04
 Iteration     2 internal iteration     2 dimension is    16
 Root      1 not converged, maximum delta is    0.091510787635189
 Root      2 not converged, maximum delta is    0.052558063203998
 Root      3 not converged, maximum delta is    0.057411000574598
 Root      4 not converged, maximum delta is    0.109396721228959
 Eigenvalues at current iteration:
 Root      1 :  -767.383799075602200   Change is   -0.076878995447601
 Root      2 :  -767.232818333448000   Change is   -0.070884726088366
 Root      3 :  -767.187528542171200   Change is   -0.076752085342378
 Root      4 :  -767.183162721623000   Change is   -0.120824171500544
 DEMax= 1.21D-01
 State    1 2nd order lowering   -0.209918534783E-04 norm 1.67D-04
 State    2 2nd order lowering   -0.244112348348E-04 norm 1.80D-04
 State    3 2nd order lowering   -0.233287988263E-04 norm 1.76D-04
 State    4 2nd order lowering   -0.378976784283E-04 norm 2.24D-04
 Iteration     3 internal iteration     3 dimension is    20
 Root      1 not converged, maximum delta is    0.018568703376770
 Root      2 not converged, maximum delta is    0.021322259853898
 New state      3 was old state      4
 Root      3 not converged, maximum delta is    0.037039966309476
 New state      4 was old state      3
 Root      4 not converged, maximum delta is    0.031655721380459
 Eigenvalues at current iteration:
 Root      1 :  -767.393785816194200   Change is   -0.009986740592012
 Root      2 :  -767.244458688788100   Change is   -0.011640355340091
 Root      3 :  -767.204245398507200   Change is   -0.021082676884134
 Root      4 :  -767.199479604593900   Change is   -0.011951062422668
 DEMax= 2.11D-02
 State    1 2nd order lowering   -0.510508585256E-05 norm 8.22D-05
 State    2 2nd order lowering   -0.793921457523E-05 norm 1.03D-04
 State    3 2nd order lowering   -0.102562225950E-04 norm 1.17D-04
 State    4 2nd order lowering   -0.750273804760E-05 norm 9.97D-05
 Iteration     4 internal iteration     4 dimension is    24
 Root      1 not converged, maximum delta is    0.011961173924647
 Root      2 not converged, maximum delta is    0.011719416533205
 Root      3 not converged, maximum delta is    0.008892571343523
 Root      4 not converged, maximum delta is    0.012103913638439
 Eigenvalues at current iteration:
 Root      1 :  -767.395872302413100   Change is   -0.002086486218900
 Root      2 :  -767.247854843244100   Change is   -0.003396154456027
 Root      3 :  -767.208587039276700   Change is   -0.004341640769553
 Root      4 :  -767.202985154399700   Change is   -0.003505549805823
 DEMax= 4.34D-03
 State    1 2nd order lowering   -0.203050076184E-05 norm 5.19D-05
 State    2 2nd order lowering   -0.353721111525E-05 norm 6.85D-05
 State    3 2nd order lowering   -0.347021681484E-05 norm 6.78D-05
 State    4 2nd order lowering   -0.377158464933E-05 norm 7.07D-05
 Iteration     5 internal iteration     5 dimension is    28
 Root      1 not converged, maximum delta is    0.009739605328580
 Root      2 not converged, maximum delta is    0.008202124585403
 Root      3 not converged, maximum delta is    0.005572110564211
 Root      4 not converged, maximum delta is    0.010225632839377
 Eigenvalues at current iteration:
 Root      1 :  -767.396750372895600   Change is   -0.000878070482486
 Root      2 :  -767.249312575246000   Change is   -0.001457732001882
 Root      3 :  -767.209912695148200   Change is   -0.001325655871483
 Root      4 :  -767.204615555718000   Change is   -0.001630401318266
 DEMax= 1.63D-03
 State    1 2nd order lowering   -0.102484285487E-05 norm 3.68D-05
 State    2 2nd order lowering   -0.169727393119E-05 norm 4.74D-05
 State    3 2nd order lowering   -0.126715238653E-05 norm 4.10D-05
 State    4 2nd order lowering   -0.192404871829E-05 norm 5.05D-05
 Iteration     6 internal iteration     6 dimension is    32
 Root      1 not converged, maximum delta is    0.004878309677990
 Root      2 not converged, maximum delta is    0.005707765054266
 Root      3 not converged, maximum delta is    0.003292910133838
 Root      4 not converged, maximum delta is    0.007883293606438
 Eigenvalues at current iteration:
 Root      1 :  -767.397089740098400   Change is   -0.000339367202855
 Root      2 :  -767.249876023417100   Change is   -0.000563448171079
 Root      3 :  -767.210349535048500   Change is   -0.000436839900317
 Root      4 :  -767.205271668204300   Change is   -0.000656112486354
 DEMax= 6.56D-04
 State    1 2nd order lowering   -0.326379521854E-06 norm 2.08D-05
 State    2 2nd order lowering   -0.612928355473E-06 norm 2.85D-05
 State    3 2nd order lowering   -0.457233322752E-06 norm 2.46D-05
 State    4 2nd order lowering   -0.751635198574E-06 norm 3.16D-05
 Iteration     7 internal iteration     7 dimension is    36
 Root      1 not converged, maximum delta is    0.001942257939699
 Root      2 not converged, maximum delta is    0.003547796424849
 Root      3 not converged, maximum delta is    0.001927071282574
 Root      4 not converged, maximum delta is    0.005958285165665
 Eigenvalues at current iteration:
 Root      1 :  -767.397182893766600   Change is   -0.000093153668217
 Root      2 :  -767.250061210849800   Change is   -0.000185187432749
 Root      3 :  -767.210493851616400   Change is   -0.000144316567912
 Root      4 :  -767.205517180319400   Change is   -0.000245512115043
 DEMax= 2.46D-04
 State    1 2nd order lowering   -0.104133053448E-06 norm 1.17D-05
 State    2 2nd order lowering   -0.217403064158E-06 norm 1.70D-05
 State    3 2nd order lowering   -0.159101100480E-06 norm 1.45D-05
 State    4 2nd order lowering   -0.316819975185E-06 norm 2.05D-05
 Iteration     8 internal iteration     8 dimension is    40
 Root      1 not converged, maximum delta is    0.001533787310742
 Root      2 not converged, maximum delta is    0.002652938777176
 Root      3 not converged, maximum delta is    0.001344181378420
 Root      4 not converged, maximum delta is    0.005257104568245
 Eigenvalues at current iteration:
 Root      1 :  -767.397212966397800   Change is   -0.000030072631148
 Root      2 :  -767.250133415362600   Change is   -0.000072204512776
 Root      3 :  -767.210540446699000   Change is   -0.000046595082608
 Root      4 :  -767.205629608871200   Change is   -0.000112428551802
 DEMax= 1.12D-04
 State    1 2nd order lowering   -0.364798396621E-07 norm 6.95D-06
 State    2 2nd order lowering   -0.909219452009E-07 norm 1.10D-05
 State    3 2nd order lowering   -0.588522634066E-07 norm 8.83D-06
 State    4 2nd order lowering   -0.162291863288E-06 norm 1.47D-05
 Iteration     9 internal iteration     9 dimension is    44
 Root      1 not converged, maximum delta is    0.001006723133685
 Root      2 not converged, maximum delta is    0.002355526285301
 Root      3 not converged, maximum delta is    0.000988192293824
 Root      4 not converged, maximum delta is    0.005971250025518
 Eigenvalues at current iteration:
 Root      1 :  -767.397223374583400   Change is   -0.000010408185631
 Root      2 :  -767.250169142872100   Change is   -0.000035727509498
 Root      3 :  -767.210558882703600   Change is   -0.000018436004552
 Root      4 :  -767.205704568812300   Change is   -0.000074959941117
 DEMax= 7.50D-05
 State    1 2nd order lowering   -0.140700052119E-07 norm 4.32D-06
 State    2 2nd order lowering   -0.531012390023E-07 norm 8.39D-06
 State    3 2nd order lowering   -0.282925757598E-07 norm 6.12D-06
 State    4 2nd order lowering   -0.130795719608E-06 norm 1.32D-05
 Iteration    10 internal iteration    10 dimension is    48
 Root      1 not converged, maximum delta is    0.000541294541192
 Root      2 not converged, maximum delta is    0.002107382421231
 Root      3 not converged, maximum delta is    0.000869891259558
 Root      4 not converged, maximum delta is    0.006563995525723
 Eigenvalues at current iteration:
 Root      1 :  -767.397227169179100   Change is   -0.000003794595727
 Root      2 :  -767.250190454835300   Change is   -0.000021311963224
 Root      3 :  -767.210567962720900   Change is   -0.000009080017321
 Root      4 :  -767.205766220949400   Change is   -0.000061652137106
 DEMax= 6.17D-05
 State    1 2nd order lowering   -0.486795263055E-08 norm 2.54D-06
 State    2 2nd order lowering   -0.293113906696E-07 norm 6.23D-06
 State    3 2nd order lowering   -0.163307887956E-07 norm 4.65D-06
 State    4 2nd order lowering   -0.887979073021E-07 norm 1.08D-05
 Iteration    11 internal iteration    11 dimension is    52
 Root      1 not converged, maximum delta is    0.000246026568512
 Root      2 not converged, maximum delta is    0.001240651536757
 Root      3 not converged, maximum delta is    0.000900961983590
 Root      4 not converged, maximum delta is    0.004061497001957
 Eigenvalues at current iteration:
 Root      1 :  -767.397228566758900   Change is   -0.000001397579808
 Root      2 :  -767.250199837575200   Change is   -0.000009382739904
 Root      3 :  -767.210573665969300   Change is   -0.000005703248348
 Root      4 :  -767.205798449892100   Change is   -0.000032228942700
 DEMax= 3.22D-05
 State    1 2nd order lowering   -0.260121205943E-08 norm 1.86D-06
 State    2 2nd order lowering   -0.154281842530E-07 norm 4.52D-06
 State    3 2nd order lowering   -0.109768018088E-07 norm 3.81D-06
 State    4 2nd order lowering   -0.443636501510E-07 norm 7.66D-06
 Iteration    12 internal iteration    12 dimension is    56
 Root      1 not converged, maximum delta is    0.000203474208610
 Root      2 not converged, maximum delta is    0.000804439232657
 Root      3 not converged, maximum delta is    0.000793184562657
 Root      4 not converged, maximum delta is    0.002085037688462
 Eigenvalues at current iteration:
 Root      1 :  -767.397229329122300   Change is   -0.000000762363356
 Root      2 :  -767.250204600911400   Change is   -0.000004763336165
 Root      3 :  -767.210577227742400   Change is   -0.000003561773156
 Root      4 :  -767.205813040264800   Change is   -0.000014590372757
 DEMax= 1.46D-05
 State    1 2nd order lowering   -0.117404243506E-08 norm 1.25D-06
 State    2 2nd order lowering   -0.905531291336E-08 norm 3.46D-06
 State    3 2nd order lowering   -0.633627170150E-08 norm 2.90D-06
 State    4 2nd order lowering   -0.215485287810E-07 norm 5.34D-06
 Iteration    13 internal iteration    13 dimension is    60
 Root      1 not converged, maximum delta is    0.000159662692089
 Root      2 not converged, maximum delta is    0.000537305199598
 Root      3 not converged, maximum delta is    0.000729067543286
 Root      4 not converged, maximum delta is    0.001102114299590
 Eigenvalues at current iteration:
 Root      1 :  -767.397229690181600   Change is   -0.000000361059278
 Root      2 :  -767.250207308345000   Change is   -0.000002707433623
 Root      3 :  -767.210579715489300   Change is   -0.000002487746883
 Root      4 :  -767.205820135379300   Change is   -0.000007095114483
 DEMax= 7.10D-06
 State    1 2nd order lowering   -0.557252544533E-09 norm 8.59D-07
 State    2 2nd order lowering   -0.555634717399E-08 norm 2.71D-06
 State    3 2nd order lowering   -0.459889674982E-08 norm 2.47D-06
 State    4 2nd order lowering   -0.151030003908E-07 norm 4.47D-06
 Iteration    14 internal iteration    14 dimension is    64
 Root      1 not converged, maximum delta is    0.000091739554792
 Root      2 not converged, maximum delta is    0.000370242456501
 Root      3 not converged, maximum delta is    0.000491812580712
 Root      4 not converged, maximum delta is    0.001003733257240
 Eigenvalues at current iteration:
 Root      1 :  -767.397229832773900   Change is   -0.000000142592285
 Root      2 :  -767.250209082962200   Change is   -0.000001774617203
 Root      3 :  -767.210581157903700   Change is   -0.000001442414373
 Root      4 :  -767.205824995263200   Change is   -0.000004859883916
 DEMax= 4.86D-06
 State    1 2nd order lowering   -0.286789749666E-09 norm 6.16D-07
 State    2 2nd order lowering   -0.362000456941E-08 norm 2.19D-06
 State    3 2nd order lowering   -0.357957660673E-08 norm 2.18D-06
 State    4 2nd order lowering   -0.943722289404E-08 norm 3.53D-06
 Iteration    15 internal iteration    15 dimension is    68
 Root      1 not converged, maximum delta is    0.000041040256275
 Root      2 not converged, maximum delta is    0.000270513784376
 Root      3 not converged, maximum delta is    0.000392362703305
 Root      4 not converged, maximum delta is    0.000974640987422
 Eigenvalues at current iteration:
 Root      1 :  -767.397229882349800   Change is   -0.000000049575988
 Root      2 :  -767.250209993293400   Change is   -0.000000910331210
 Root      3 :  -767.210582105940000   Change is   -0.000000948036359
 Root      4 :  -767.205828411318200   Change is   -0.000003416054938
 DEMax= 3.42D-06
 State    1 2nd order lowering   -0.157119155304E-09 norm 4.56D-07
 State    2 2nd order lowering   -0.232392230420E-08 norm 1.75D-06
 State    3 2nd order lowering   -0.194380640036E-08 norm 1.60D-06
 State    4 2nd order lowering   -0.643759368076E-08 norm 2.92D-06
 Iteration    16 internal iteration    16 dimension is    72
 Root      1 not converged, maximum delta is    0.000030294047196
 Root      2 not converged, maximum delta is    0.000244840524038
 Root      3 not converged, maximum delta is    0.000270092084055
 Root      4 not converged, maximum delta is    0.000780027429264
 Eigenvalues at current iteration:
 Root      1 :  -767.397229912740500   Change is   -0.000000030390652
 Root      2 :  -767.250210585559200   Change is   -0.000000592265792
 Root      3 :  -767.210582640045100   Change is   -0.000000534105084
 Root      4 :  -767.205830494756100   Change is   -0.000002083437948
 DEMax= 2.08D-06
 State    1 2nd order lowering   -0.903677361462E-10 norm 3.46D-07
 State    2 2nd order lowering   -0.105961063995E-08 norm 1.18D-06
 State    3 2nd order lowering   -0.110126838797E-08 norm 1.21D-06
 State    4 2nd order lowering   -0.489086206220E-08 norm 2.54D-06
 Iteration    17 internal iteration    17 dimension is    76
 Root      1 not converged, maximum delta is    0.000029188975776
 Root      2 not converged, maximum delta is    0.000191293085045
 Root      3 not converged, maximum delta is    0.000154759122733
 Root      4 not converged, maximum delta is    0.000624912137502
 Eigenvalues at current iteration:
 Root      1 :  -767.397229932212100   Change is   -0.000000019471599
 Root      2 :  -767.250210887129700   Change is   -0.000000301570481
 Root      3 :  -767.210582890858400   Change is   -0.000000250813287
 Root      4 :  -767.205831873412100   Change is   -0.000001378655952
 DEMax= 1.38D-06
 State    1 2nd order lowering   -0.482460604376E-10 norm 2.53D-07
 State    2 2nd order lowering   -0.735484034655E-09 norm 9.86D-07
 State    3 2nd order lowering   -0.697554893759E-09 norm 9.61D-07
 State    4 2nd order lowering   -0.367091754674E-08 norm 2.20D-06
 Iteration    18 internal iteration    18 dimension is    80
 Root      1 not converged, maximum delta is    0.000032145184799
 Root      2 not converged, maximum delta is    0.000152437381051
 Root      3 not converged, maximum delta is    0.000107903793039
 Root      4 not converged, maximum delta is    0.000510190927956
 Eigenvalues at current iteration:
 Root      1 :  -767.397229944985000   Change is   -0.000000012772944
 Root      2 :  -767.250211055601300   Change is   -0.000000168471615
 Root      3 :  -767.210583022017900   Change is   -0.000000131159481
 Root      4 :  -767.205832871759300   Change is   -0.000000998347218
 DEMax= 9.98D-07
 State    1 2nd order lowering   -0.295614116715E-10 norm 1.98D-07
 State    2 2nd order lowering   -0.640434774205E-09 norm 9.20D-07
 State    3 2nd order lowering   -0.351184943956E-09 norm 6.82D-07
 State    4 2nd order lowering   -0.168856186588E-08 norm 1.50D-06
 Iteration    19 internal iteration    19 dimension is    84
 Root      1 not converged, maximum delta is    0.000023913042996
 Root      2 not converged, maximum delta is    0.000165011101387
 Root      3 not converged, maximum delta is    0.000085862294168
 Root      4 not converged, maximum delta is    0.000240287755036
 Eigenvalues at current iteration:
 Root      1 :  -767.397229951317100   Change is   -0.000000006332016
 Root      2 :  -767.250211200016100   Change is   -0.000000144414798
 Root      3 :  -767.210583096285900   Change is   -0.000000074267973
 Root      4 :  -767.205833305812500   Change is   -0.000000434053163
 DEMax= 4.34D-07
 State    1 2nd order lowering   -0.181246735829E-10 norm 1.55D-07
 State    2 2nd order lowering   -0.366175078398E-09 norm 6.96D-07
 State    3 2nd order lowering   -0.205160394188E-09 norm 5.21D-07
 State    4 2nd order lowering   -0.101905117706E-08 norm 1.16D-06
 Iteration    20 internal iteration    20 dimension is    88
 Root      1 not converged, maximum delta is    0.000018146740365
 Root      2 not converged, maximum delta is    0.000144732909818
 Root      3 not converged, maximum delta is    0.000076067551513
 Root      4 not converged, maximum delta is    0.000111073464864
 Eigenvalues at current iteration:
 Root      1 :  -767.397229954735200   Change is   -0.000000003418108
 Root      2 :  -767.250211295934300   Change is   -0.000000095918153
 Root      3 :  -767.210583144090200   Change is   -0.000000047804292
 Root      4 :  -767.205833496058700   Change is   -0.000000190246283
 DEMax= 1.90D-07
 State    1 2nd order lowering   -0.671523363997E-11 norm 9.43D-08
 State    2 2nd order lowering   -0.288518881409E-09 norm 6.18D-07
 State    3 2nd order lowering   -0.128838874680E-09 norm 4.13D-07
 State    4 2nd order lowering   -0.429811465892E-09 norm 7.54D-07
 Iteration    21 internal iteration    21 dimension is    92
 Root      1 not converged, maximum delta is    0.000012783838422
 Root      2 not converged, maximum delta is    0.000130668277850
 Root      3 not converged, maximum delta is    0.000074034254989
 Root      4 not converged, maximum delta is    0.000062109210366
 Eigenvalues at current iteration:
 Root      1 :  -767.397229956331700   Change is   -0.000000001596504
 Root      2 :  -767.250211364238300   Change is   -0.000000068304075
 Root      3 :  -767.210583178458500   Change is   -0.000000034368327
 Root      4 :  -767.205833592584300   Change is   -0.000000096525582
 DEMax= 9.65D-08
 State    1 2nd order lowering   -0.269610662493E-11 norm 5.97D-08
 State    2 2nd order lowering   -0.169257551990E-09 norm 4.73D-07
 State    3 2nd order lowering   -0.877704556351E-10 norm 3.41D-07
 State    4 2nd order lowering   -0.176747842576E-09 norm 4.84D-07
 Iteration    22 internal iteration    22 dimension is    96
 Root      1 not converged, maximum delta is    0.000008608529352
 Root      2 not converged, maximum delta is    0.000100043427532
 Root      3 not converged, maximum delta is    0.000054487255318
 Root      4 not converged, maximum delta is    0.000031500374456
 Eigenvalues at current iteration:
 Root      1 :  -767.397229957040100   Change is   -0.000000000708383
 Root      2 :  -767.250211404697700   Change is   -0.000000040459327
 Root      3 :  -767.210583198614100   Change is   -0.000000020155653
 Root      4 :  -767.205833631222700   Change is   -0.000000038638404
 DEMax= 4.05D-08
 State    1 2nd order lowering   -0.153504145123E-11 norm 4.51D-08
 State    2 2nd order lowering   -0.126040391410E-09 norm 4.08D-07
 State    3 2nd order lowering   -0.593337601438E-10 norm 2.80D-07
 State    4 2nd order lowering   -0.851675101730E-10 norm 3.36D-07
 Iteration    23 internal iteration    23 dimension is    99
 Root      1 has converged.
 Root      2 not converged, maximum delta is    0.000082854858830
 Root      3 not converged, maximum delta is    0.000039892505220
 Root      4 not converged, maximum delta is    0.000020545212058
 Eigenvalues at current iteration:
 Root      1 :  -767.397229957044700   Change is   -0.000000000004661
 Root      2 :  -767.250211431816900   Change is   -0.000000027119199
 Root      3 :  -767.210583211032800   Change is   -0.000000012418695
 Root      4 :  -767.205833648754800   Change is   -0.000000017532102
 DEMax= 2.71D-08
 State    1 2nd order lowering   -0.153509755444E-11 norm 4.51D-08
 State    2 2nd order lowering   -0.762006383304E-10 norm 3.18D-07
 State    3 2nd order lowering   -0.260225648602E-10 norm 1.86D-07
 State    4 2nd order lowering   -0.448858667909E-10 norm 2.44D-07
 Iteration    24 internal iteration    24 dimension is   102
 Root      1 not converged, maximum delta is    0.000001081408805
 Root      2 not converged, maximum delta is    0.000086488415444
 Root      3 not converged, maximum delta is    0.000023889813595
 Root      4 not converged, maximum delta is    0.000017319233623
 Eigenvalues at current iteration:
 Root      1 :  -767.397229957051800   Change is   -0.000000000007049
 Root      2 :  -767.250211453861100   Change is   -0.000000022044219
 Root      3 :  -767.210583217198200   Change is   -0.000000006165351
 Root      4 :  -767.205833658688200   Change is   -0.000000009933387
 DEMax= 2.20D-08
 State    1 2nd order lowering   -0.155014287883E-11 norm 4.53D-08
 State    2 2nd order lowering   -0.604370946205E-10 norm 2.83D-07
 State    3 2nd order lowering   -0.139746386638E-10 norm 1.36D-07
 State    4 2nd order lowering   -0.187676254981E-10 norm 1.58D-07
 Iteration    25 internal iteration    25 dimension is   105
 Root      1 not converged, maximum delta is    0.000001468280836
 Root      2 not converged, maximum delta is    0.000079900853909
 Root      3 not converged, maximum delta is    0.000013817820545
 Root      4 not converged, maximum delta is    0.000011934130222
 Eigenvalues at current iteration:
 Root      1 :  -767.397229957063900   Change is   -0.000000000012164
 Root      2 :  -767.250211470392500   Change is   -0.000000016531430
 Root      3 :  -767.210583220282300   Change is   -0.000000003084097
 Root      4 :  -767.205833663178300   Change is   -0.000000004490062
 DEMax= 1.65D-08
 State    1 2nd order lowering   -0.147964996091E-11 norm 4.42D-08
 State    2 2nd order lowering   -0.447034036068E-10 norm 2.43D-07
 State    3 2nd order lowering   -0.791175813319E-11 norm 1.02D-07
 State    4 2nd order lowering   -0.111941116071E-10 norm 1.22D-07
 Iteration    26 internal iteration    26 dimension is   108
 Root      1 has converged.
 Root      2 not converged, maximum delta is    0.000067965520111
 Root      3 not converged, maximum delta is    0.000009645046751
 Root      4 not converged, maximum delta is    0.000008475744750
 Eigenvalues at current iteration:
 Root      1 :  -767.397229957064700   Change is   -0.000000000000796
 Root      2 :  -767.250211482354200   Change is   -0.000000011961674
 Root      3 :  -767.210583222154800   Change is   -0.000000001872536
 Root      4 :  -767.205833665624600   Change is   -0.000000002446313
 DEMax= 1.20D-08
 State    1 2nd order lowering   -0.148803492279E-11 norm 4.44D-08
 State    2 2nd order lowering   -0.365320623609E-10 norm 2.20D-07
 State    3 2nd order lowering   -0.505261788186E-11 norm 8.18D-08
 State    4 2nd order lowering   -0.519200657649E-11 norm 8.29D-08
 Iteration    27 internal iteration    27 dimension is   110
 Root      1 has converged.
 Root      2 not converged, maximum delta is    0.000058524617068
 Root      3 not converged, maximum delta is    0.000011384654869
 Root      4 not converged, maximum delta is    0.000002191537451
 Eigenvalues at current iteration:
 Root      1 :  -767.397229957070600   Change is   -0.000000000005912
 Root      2 :  -767.250211491208600   Change is   -0.000000008854386
 Root      3 :  -767.210583223590800   Change is   -0.000000001435978
 Root      4 :  -767.205833665677000   Change is   -0.000000000052410
 DEMax= 8.85D-09
 State    1 2nd order lowering   -0.149127557446E-11 norm 4.44D-08
 State    2 2nd order lowering   -0.225657124658E-10 norm 1.73D-07
 State    3 2nd order lowering   -0.383905359640E-11 norm 7.13D-08
 State    4 2nd order lowering   -0.524681208241E-11 norm 8.33D-08
 Iteration    28 internal iteration    28 dimension is   112
 Root      1 not converged, maximum delta is    0.000001032211008
 Root      2 not converged, maximum delta is    0.000044478558224
 Root      3 not converged, maximum delta is    0.000013189372681
 Root      4 not converged, maximum delta is    0.000003440343371
 Eigenvalues at current iteration:
 Root      1 :  -767.397229957079200   Change is   -0.000000000008527
 Root      2 :  -767.250211497031700   Change is   -0.000000005823154
 Root      3 :  -767.210583224783500   Change is   -0.000000001192689
 Root      4 :  -767.205833665756400   Change is   -0.000000000079353
 DEMax= 5.82D-09
 State    1 2nd order lowering   -0.144336183799E-11 norm 4.37D-08
 State    2 2nd order lowering   -0.167464730363E-10 norm 1.49D-07
 State    3 2nd order lowering   -0.360303720589E-11 norm 6.90D-08
 State    4 2nd order lowering   -0.546170077015E-11 norm 8.50D-08
 Iteration    29 internal iteration    29 dimension is   114
 Root      1 has converged.
 Root      2 not converged, maximum delta is    0.000034532870367
 Root      3 not converged, maximum delta is    0.000013474668979
 Root      4 not converged, maximum delta is    0.000005217544957
 Eigenvalues at current iteration:
 Root      1 :  -767.397229957080400   Change is   -0.000000000001251
 Root      2 :  -767.250211501129200   Change is   -0.000000004097501
 Root      3 :  -767.210583225747100   Change is   -0.000000000963610
 Root      4 :  -767.205833665897000   Change is   -0.000000000140631
 DEMax= 4.10D-09
 State    1 2nd order lowering   -0.144615893724E-11 norm 4.37D-08
 State    2 2nd order lowering   -0.915154462600E-11 norm 1.10D-07
 State    3 2nd order lowering   -0.286901404462E-11 norm 6.16D-08
 State    4 2nd order lowering   -0.553946474631E-11 norm 8.56D-08
 Iteration    30 internal iteration    30 dimension is   116
 Root      1 has converged.
 Root      2 not converged, maximum delta is    0.000020263954885
 Root      3 not converged, maximum delta is    0.000002146456560
 Root      4 not converged, maximum delta is    0.000009091356613
 Eigenvalues at current iteration:
 Root      1 :  -767.397229957082700   Change is   -0.000000000002274
 Root      2 :  -767.250211503274200   Change is   -0.000000002144930
 Root      3 :  -767.210583225823600   Change is   -0.000000000076511
 Root      4 :  -767.205833667236200   Change is   -0.000000001339231
 DEMax= 2.14D-09
 State    1 2nd order lowering   -0.144429032344E-11 norm 4.37D-08
 State    2 2nd order lowering   -0.477595831116E-11 norm 7.95D-08
 State    3 2nd order lowering   -0.278681926056E-11 norm 6.07D-08
 State    4 2nd order lowering   -0.335380084613E-11 norm 6.66D-08
 Iteration    31 internal iteration    31 dimension is   117
 Root      1 has converged.
 Root      2 not converged, maximum delta is    0.000011179129173
 Root      3 has converged.
 Root      4 has converged.
 Eigenvalues at current iteration:
 Root      1 :  -767.397229957085100   Change is   -0.000000000002387
 Root      2 :  -767.250211504331800   Change is   -0.000000001057629
 Root      3 :  -767.210583225823800   Change is   -0.000000000000227
 Root      4 :  -767.205833667236400   Change is   -0.000000000000227
 DEMax= 1.06D-09
 State    1 2nd order lowering   -0.143441850614E-11 norm 4.36D-08
 State    2 2nd order lowering   -0.270044082331E-11 norm 5.98D-08
 State    3 2nd order lowering   -0.278681925966E-11 norm 6.07D-08
 State    4 2nd order lowering   -0.335380084983E-11 norm 6.66D-08
 Convergence achieved on expansion vectors.
 ibunc,ibunc2,ibuvec       641       640        23
 Energy state  1 =     -767.3972299571
 Full Convergence on CI vector
 Energy state  2 =     -767.2502115043
 Full Convergence on CI vector
 Energy state  3 =     -767.2105832258
 Full Convergence on CI vector
 Energy state  4 =     -767.2058336672
 Full Convergence on CI vector
 Defining IBUGAM
 State Average Calculation.   The weights are:
 St.: 1 w.=0.000000 # St.: 2 w.=0.333333 # St.: 3 w.=0.333333 # St.: 4 w.=0.333333 #
 2ND ORD PT ENERGY     CV   -0.000007   CU   -0.000055   UV   -0.000230
 TOTAL                    -767.206126
 WARNING! : large rotation  I  J  =                       65
                       62
 Step scaled by    0.1791036243876076     
 ITN=  1 MaxIt=512 E=   -767.2058336672 DE=-7.67D+02 Acc= 1.00D-08 Lan=117
 In Davids. NSec=    314028
 IMaxHF,MaxMI,MSekIn,IFactt,WhenSc,nroot    5  200    8    2    2    4
          (  1)     Eigenvalue  -767.397229957    
 (       1)-0.8999530 (      10) 0.1347148 (   32131) 0.1220631 (    8259) 0.0984942 (    8256) 0.0955881 (    9181) 0.0933058 (   32697) 0.0925706
 (   31938) 0.0878646 (    8136) 0.0841087 (  107209)-0.0811732 (  108598)-0.0758772 (   32641)-0.0692379 (   32896) 0.0685219 (  107010)-0.0664298
 (      39) 0.0633144 (  107886)-0.0597996 (    1717)-0.0557301 (     121) 0.0556985 (    1653) 0.0539576 (  107547)-0.0508171 (  108405)-0.0476039
 (    8573)-0.0472218 (       6) 0.0447569 (    1597)-0.0440971 (    8260) 0.0436848 (       9)-0.0422746 (  108815)-0.0417745 (  107416) 0.0413780
 (    1834)-0.0391057 (    1830) 0.0385835 (  106954) 0.0384337 (      36) 0.0374120 (  108939)-0.0364594 (    8384) 0.0348493 (    8189)-0.0338809
 (    8131)-0.0338600 (  107427)-0.0322399 (      21) 0.0312792 (    8385) 0.0309534 (    1664)-0.0299369 (  108811) 0.0294811 (  107474) 0.0279599
 (      31)-0.0267138 (  107939) 0.0264386 (  108872) 0.0254280 (    9316)-0.0235577 (    8646) 0.0234573 (  108819)-0.0231109 (  227800)-0.0226150
 (    8265) 0.0215983 (
          (  2)     Eigenvalue  -767.250211504    
 (     232) 0.8408026 (      46)-0.2501971 (   31885) 0.1620317 (    8386) 0.1543727 (     382) 0.1261078 (   32005)-0.1000892 (   13169)-0.0894687
 (   13206)-0.0652522 (    8283) 0.0652147 (   14707) 0.0617605 (    9202)-0.0616202 (   41962)-0.0596141 (    1777) 0.0576517 (   13049)-0.0556153
 (   32662)-0.0555814 (    8165) 0.0553711 (   42161)-0.0530781 (  107243) 0.0523167 (  108352)-0.0492567 (   36568)-0.0450569 (    1606) 0.0435430
 (    1795)-0.0430361 (     354) 0.0418641 (     360) 0.0418593 (     706) 0.0417168 (   31972)-0.0408867 (  124257) 0.0396833 (  107910)-0.0396784
 (  108370) 0.0384414 (  106963)-0.0382095 (     175) 0.0375087 (   10859)-0.0368217 (    4284) 0.0368071 (     247)-0.0367745 (    1741)-0.0367587
 (    1082)-0.0367399 (      28)-0.0366361 (   31903)-0.0365241 (  125003) 0.0355388 (    8061)-0.0353616 (     674) 0.0347893 (  107581) 0.0337388
 (  123884) 0.0337025 (    4431)-0.0315046 (    8607) 0.0312214 (   13588) 0.0311547 (    1618)-0.0302500 (  108472) 0.0301918 (     441) 0.0292329
 (   13332)-0.0289322 (
          (  3)     Eigenvalue  -767.210583226    
 (       4)-0.5879516 (    8257) 0.4736215 (      37) 0.2982690 (    8129)-0.1745972 (       7)-0.1683013 (      18)-0.1358055 (    8262)-0.1150780
 (    8519)-0.1132748 (  107420) 0.1025332 (  107883) 0.1017648 (    8643) 0.0975155 (    1714) 0.0967844 (    1657) 0.0960657 (  107544)-0.0895651
 (  108009) 0.0860990 (    8186)-0.0835633 (   33406)-0.0800623 (    8315) 0.0792724 (      42)-0.0672920 (      59)-0.0659952 (   72263) 0.0644663
 (    8523) 0.0573694 (    8139) 0.0572612 (    9736) 0.0517381 (  107424)-0.0486742 (  107889) 0.0469791 (    8002) 0.0456811 (    1661)-0.0454685
 (   34709) 0.0448784 (    9584) 0.0443346 (    1720) 0.0431428 (   34510) 0.0430254 (   32702)-0.0428750 (  107419)-0.0427644 (      29)-0.0414858
 (   36299) 0.0410612 (   31945) 0.0407374 (   33213)-0.0406978 (  107884) 0.0402560 (    1656)-0.0393049 (  111621) 0.0390981 (    1715) 0.0381935
 (  109534) 0.0375699 (  107216)-0.0373545 (       2)-0.0368953 (  111215) 0.0363966 (  107946) 0.0361733 (   74561)-0.0361467 (    1948)-0.0354878
 (  108603) 0.0352371 (
          (  4)     Eigenvalue  -767.205833667    
 (      22) 0.6201189 (     301)-0.4668991 (    8002)-0.3864570 (   31900) 0.2366866 (      82) 0.0927949 (   10139)-0.0914457 (    1792) 0.0826271
 (       2) 0.0732385 (   42158)-0.0722864 (  108367)-0.0710370 (    1621) 0.0703720 (     565) 0.0701308 (   10156)-0.0673634 (   11477) 0.0630637
 (  106978)-0.0614159 (    8782)-0.0604145 (   10019)-0.0570607 (   31888)-0.0541013 (   32647)-0.0523228 (   36372)-0.0499439 (   13989)-0.0496424
 (    8268) 0.0476022 (    9187)-0.0454987 (    1780)-0.0451001 (  107223) 0.0437395 (   36571)-0.0411640 (  108355) 0.0396030 (   32734)-0.0381597
 (    8288) 0.0362140 (   14199)-0.0361920 (   33439)-0.0356338 (  107561) 0.0346966 (   15754)-0.0343266 (    9205) 0.0343024 (    4428)-0.0338312
 (  125006) 0.0335270 (   41965)-0.0330626 (   31952)-0.0329065 (   32008) 0.0325958 (      69) 0.0322259 (   10498) 0.0320166 (    8775)-0.0317953
 (   32767) 0.0316864 (   13869)-0.0309647 (    8170) 0.0309141 (   72447) 0.0308065 (      75) 0.0306201 (  107047) 0.0294316 (  114487) 0.0292402
 (  124807) 0.0292124 (
 Davidson Disk Diagonalization is being used:
 MVecIn=      4 MSekIn=    4 NVConv=    4 MConv=    4 WhenSc=  0 IFact=    1 FinIt=F
 NRoot=     4 Conv= 0.00D+00 MaxIt=      314028 Dim=      314028 Max sub=   200
 Iteration     1 internal iteration     1 dimension is     4
 Eigenvalues at current iteration:
 Root      1 :  -767.349871220444000
 Root      2 :  -767.177789846011900
 Root      3 :  -767.118550003446600
 Root      4 :  -767.086046257828600
 DEMax= 0.00D+00
 State    1 2nd order lowering   -0.643411621264E-04 norm 2.92D-04
 State    2 2nd order lowering   -0.757584519024E-04 norm 3.17D-04
 State    3 2nd order lowering   -0.666377085871E-04 norm 2.97D-04
 State    4 2nd order lowering   -0.100282743873E-03 norm 3.65D-04
 Iteration     2 internal iteration     2 dimension is     8
 Root      1 not converged, maximum delta is    0.058028973154912
 Root      2 not converged, maximum delta is    0.056362444872370
 Root      3 not converged, maximum delta is    0.055927271991802
 Root      4 not converged, maximum delta is    0.087129192603782
 Eigenvalues at current iteration:
 Root      1 :  -767.388417647474300   Change is   -0.038546427030269
 Root      2 :  -767.232067333268400   Change is   -0.054277487256513
 Root      3 :  -767.169727450458100   Change is   -0.051177447011582
 Root      4 :  -767.163641122801300   Change is   -0.077594864972752
 DEMax= 7.76D-02
 State    1 2nd order lowering   -0.149568676819E-04 norm 1.41D-04
 State    2 2nd order lowering   -0.240805461111E-04 norm 1.79D-04
 State    3 2nd order lowering   -0.245326957015E-04 norm 1.80D-04
 State    4 2nd order lowering   -0.454826429133E-04 norm 2.45D-04
 Iteration     3 internal iteration     3 dimension is    12
 Root      1 not converged, maximum delta is    0.018078384252692
 Root      2 not converged, maximum delta is    0.038248018998355
 New state      3 was old state      4
 Root      3 not converged, maximum delta is    0.075997230340764
 New state      4 was old state      3
 Root      4 not converged, maximum delta is    0.065309913528849
 Eigenvalues at current iteration:
 Root      1 :  -767.394732191980200   Change is   -0.006314544505926
 Root      2 :  -767.244064716208300   Change is   -0.011997382939853
 Root      3 :  -767.188119051215200   Change is   -0.024477928413830
 Root      4 :  -767.183294141573000   Change is   -0.013566691114875
 DEMax= 2.45D-02
 State    1 2nd order lowering   -0.438782046948E-05 norm 7.62D-05
 State    2 2nd order lowering   -0.103414663375E-04 norm 1.17D-04
 State    3 2nd order lowering   -0.235556538036E-04 norm 1.77D-04
 State    4 2nd order lowering   -0.142940380537E-04 norm 1.38D-04
 Iteration     4 internal iteration     4 dimension is    16
 Root      1 not converged, maximum delta is    0.008057040266313
 Root      2 not converged, maximum delta is    0.022964988532796
 Root      3 not converged, maximum delta is    0.046473624198732
 Root      4 not converged, maximum delta is    0.051425676240034
 Eigenvalues at current iteration:
 Root      1 :  -767.396112687633000   Change is   -0.001380495652825
 Root      2 :  -767.247780998458800   Change is   -0.003716282250480
 Root      3 :  -767.197829541084000   Change is   -0.009710489868894
 Root      4 :  -767.190091044701900   Change is   -0.006796903128929
 DEMax= 9.71D-03
 State    1 2nd order lowering   -0.166539760464E-05 norm 4.70D-05
 State    2 2nd order lowering   -0.492221827924E-05 norm 8.07D-05
 State    3 2nd order lowering   -0.147886614396E-04 norm 1.40D-04
 State    4 2nd order lowering   -0.126056799259E-04 norm 1.29D-04
 Iteration     5 internal iteration     5 dimension is    20
 Root      1 not converged, maximum delta is    0.004188712564459
 Root      2 not converged, maximum delta is    0.015054672126269
 Root      3 not converged, maximum delta is    0.039499372179588
 Root      4 not converged, maximum delta is    0.059457931288399
 Eigenvalues at current iteration:
 Root      1 :  -767.396596769039100   Change is   -0.000484081406057
 Root      2 :  -767.249273751485400   Change is   -0.001492753026582
 Root      3 :  -767.203479940416900   Change is   -0.005650399332808
 Root      4 :  -767.195415302248800   Change is   -0.005324257546818
 DEMax= 5.65D-03
 State    1 2nd order lowering   -0.708914126693E-06 norm 3.06D-05
 State    2 2nd order lowering   -0.225017574800E-05 norm 5.46D-05
 State    3 2nd order lowering   -0.998063281873E-05 norm 1.15D-04
 State    4 2nd order lowering   -0.112215595022E-04 norm 1.22D-04
 Iteration     6 internal iteration     6 dimension is    24
 Root      1 not converged, maximum delta is    0.002636041113649
 Root      2 not converged, maximum delta is    0.009539747541975
 Root      3 not converged, maximum delta is    0.029269735704801
 Root      4 not converged, maximum delta is    0.056222428198715
 Eigenvalues at current iteration:
 Root      1 :  -767.396790175110800   Change is   -0.000193406071730
 Root      2 :  -767.249894207447000   Change is   -0.000620455961666
 Root      3 :  -767.206769654559300   Change is   -0.003289714142397
 Root      4 :  -767.199515242505200   Change is   -0.004099940256424
 DEMax= 4.10D-03
 State    1 2nd order lowering   -0.264466446396E-06 norm 1.87D-05
 State    2 2nd order lowering   -0.974074024508E-06 norm 3.59D-05
 State    3 2nd order lowering   -0.552381827701E-05 norm 8.55D-05
 State    4 2nd order lowering   -0.862980662739E-05 norm 1.07D-04
 Iteration     7 internal iteration     7 dimension is    28
 Root      1 not converged, maximum delta is    0.001665752836987
 Root      2 not converged, maximum delta is    0.005138544093261
 Root      3 not converged, maximum delta is    0.017579160927137
 Root      4 not converged, maximum delta is    0.044314016350496
 Eigenvalues at current iteration:
 Root      1 :  -767.396859613219800   Change is   -0.000069438108994
 Root      2 :  -767.250117924370000   Change is   -0.000223716922960
 Root      3 :  -767.208435448877700   Change is   -0.001665794318455
 Root      4 :  -767.202325929553700   Change is   -0.002810687048509
 DEMax= 2.81D-03
 State    1 2nd order lowering   -0.122566085105E-06 norm 1.27D-05
 State    2 2nd order lowering   -0.638871248106E-06 norm 2.91D-05
 State    3 2nd order lowering   -0.364925110274E-05 norm 6.95D-05
 State    4 2nd order lowering   -0.706265273670E-05 norm 9.67D-05
 Iteration     8 internal iteration     8 dimension is    32
 Root      1 not converged, maximum delta is    0.000923664432894
 Root      2 not converged, maximum delta is    0.003441536540646
 Root      3 not converged, maximum delta is    0.008565487546268
 Root      4 not converged, maximum delta is    0.026589797920813
 Eigenvalues at current iteration:
 Root      1 :  -767.396883987108100   Change is   -0.000024373888323
 Root      2 :  -767.250229564697700   Change is   -0.000111640327759
 Root      3 :  -767.209138414373700   Change is   -0.000702965495975
 Root      4 :  -767.203876842847100   Change is   -0.001550913293386
 DEMax= 1.55D-03
 State    1 2nd order lowering   -0.787779252752E-07 norm 1.02D-05
 State    2 2nd order lowering   -0.290198331121E-06 norm 1.96D-05
 State    3 2nd order lowering   -0.210796644865E-05 norm 5.28D-05
 State    4 2nd order lowering   -0.477689553570E-05 norm 7.95D-05
 Iteration     9 internal iteration     9 dimension is    36
 Root      1 not converged, maximum delta is    0.000885842236836
 Root      2 not converged, maximum delta is    0.002897023881517
 Root      3 not converged, maximum delta is    0.006462257374465
 Root      4 not converged, maximum delta is    0.019012526306221
 Eigenvalues at current iteration:
 Root      1 :  -767.396899240446600   Change is   -0.000015253338461
 Root      2 :  -767.250297591900700   Change is   -0.000068027202929
 Root      3 :  -767.209583909826200   Change is   -0.000445495452482
 Root      4 :  -767.204923749386800   Change is   -0.001046906539727
 DEMax= 1.05D-03
 State    1 2nd order lowering   -0.285401484481E-07 norm 6.14D-06
 State    2 2nd order lowering   -0.125369434417E-06 norm 1.29D-05
 State    3 2nd order lowering   -0.818051583965E-06 norm 3.29D-05
 State    4 2nd order lowering   -0.208303218123E-05 norm 5.25D-05
 Iteration    10 internal iteration    10 dimension is    40
 Root      1 not converged, maximum delta is    0.000684138682966
 Root      2 not converged, maximum delta is    0.001472657218631
 Root      3 not converged, maximum delta is    0.005725651232336
 Root      4 not converged, maximum delta is    0.011383290024062
 Eigenvalues at current iteration:
 Root      1 :  -767.396906429781100   Change is   -0.000007189334497
 Root      2 :  -767.250322571954900   Change is   -0.000024980054263
 Root      3 :  -767.209827461568600   Change is   -0.000243551742415
 Root      4 :  -767.205499377772800   Change is   -0.000575628385945
 DEMax= 5.76D-04
 State    1 2nd order lowering   -0.141218263596E-07 norm 4.32D-06
 State    2 2nd order lowering   -0.853347943211E-07 norm 1.06D-05
 State    3 2nd order lowering   -0.682538238284E-06 norm 3.00D-05
 State    4 2nd order lowering   -0.127082986427E-05 norm 4.10D-05
 Iteration    11 internal iteration    11 dimension is    44
 Root      1 not converged, maximum delta is    0.000424983062289
 Root      2 not converged, maximum delta is    0.001141226673108
 Root      3 not converged, maximum delta is    0.005929772212782
 Root      4 not converged, maximum delta is    0.005158703207018
 Eigenvalues at current iteration:
 Root      1 :  -767.396909467242600   Change is   -0.000003037461511
 Root      2 :  -767.250337814371400   Change is   -0.000015242416453
 Root      3 :  -767.209991579390400   Change is   -0.000164117821782
 Root      4 :  -767.205747572780300   Change is   -0.000248195007543
 DEMax= 2.48D-04
 State    1 2nd order lowering   -0.660276259125E-08 norm 2.95D-06
 State    2 2nd order lowering   -0.360676113056E-07 norm 6.91D-06
 State    3 2nd order lowering   -0.504149293075E-06 norm 2.58D-05
 State    4 2nd order lowering   -0.708808513606E-06 norm 3.06D-05
 Iteration    12 internal iteration    12 dimension is    48
 Root      1 not converged, maximum delta is    0.000253641605223
 Root      2 not converged, maximum delta is    0.000833504889596
 Root      3 not converged, maximum delta is    0.005844250305321
 Root      4 not converged, maximum delta is    0.003095098071125
 Eigenvalues at current iteration:
 Root      1 :  -767.396910769075200   Change is   -0.000001301832640
 Root      2 :  -767.250346363928300   Change is   -0.000008549556924
 Root      3 :  -767.210106376249500   Change is   -0.000114796859179
 Root      4 :  -767.205893444038600   Change is   -0.000145871258269
 DEMax= 1.46D-04
 State    1 2nd order lowering   -0.323183490604E-08 norm 2.07D-06
 State    2 2nd order lowering   -0.182855934123E-07 norm 4.92D-06
 State    3 2nd order lowering   -0.395607161967E-06 norm 2.29D-05
 State    4 2nd order lowering   -0.354937778855E-06 norm 2.17D-05
 Iteration    13 internal iteration    13 dimension is    52
 Root      1 not converged, maximum delta is    0.000159033276189
 Root      2 not converged, maximum delta is    0.000506385279673
 Root      3 not converged, maximum delta is    0.007764378437146
 Root      4 not converged, maximum delta is    0.002356808916070
 Eigenvalues at current iteration:
 Root      1 :  -767.396911385312400   Change is   -0.000000616237116
 Root      2 :  -767.250350566573600   Change is   -0.000004202645300
 Root      3 :  -767.210221662169000   Change is   -0.000115285919492
 Root      4 :  -767.205970618886700   Change is   -0.000077174848116
 DEMax= 1.15D-04
 State    1 2nd order lowering   -0.104279921363E-08 norm 1.17D-06
 State    2 2nd order lowering   -0.984418401882E-08 norm 3.61D-06
 State    3 2nd order lowering   -0.341622521761E-06 norm 2.13D-05
 State    4 2nd order lowering   -0.184334678350E-06 norm 1.56D-05
 Iteration    14 internal iteration    14 dimension is    56
 Root      1 not converged, maximum delta is    0.000083778067242
 Root      2 not converged, maximum delta is    0.000347324087385
 Root      3 not converged, maximum delta is    0.007146709207583
 Root      4 not converged, maximum delta is    0.001833912968902
 Eigenvalues at current iteration:
 Root      1 :  -767.396911617358900   Change is   -0.000000232046546
 Root      2 :  -767.250352519806600   Change is   -0.000001953232982
 Root      3 :  -767.210308862068000   Change is   -0.000087199898985
 Root      4 :  -767.206012120891600   Change is   -0.000041502004933
 DEMax= 8.72D-05
 State    1 2nd order lowering   -0.502548562650E-09 norm 8.15D-07
 State    2 2nd order lowering   -0.491879717245E-08 norm 2.55D-06
 State    3 2nd order lowering   -0.297557153913E-06 norm 1.98D-05
 State    4 2nd order lowering   -0.102211516550E-06 norm 1.16D-05
 Iteration    15 internal iteration    15 dimension is    60
 Root      1 not converged, maximum delta is    0.000047291914691
 Root      2 not converged, maximum delta is    0.000278443729128
 Root      3 not converged, maximum delta is    0.007266761407424
 Root      4 not converged, maximum delta is    0.002171182015260
 Eigenvalues at current iteration:
 Root      1 :  -767.396911716127900   Change is   -0.000000098768965
 Root      2 :  -767.250353609670600   Change is   -0.000001089863986
 Root      3 :  -767.210386180595900   Change is   -0.000077318527929
 Root      4 :  -767.206035878954000   Change is   -0.000023758062412
 DEMax= 7.73D-05
 State    1 2nd order lowering   -0.267720944984E-09 norm 5.95D-07
 State    2 2nd order lowering   -0.236674438916E-08 norm 1.77D-06
 State    3 2nd order lowering   -0.182614197530E-06 norm 1.55D-05
 State    4 2nd order lowering   -0.532662902571E-07 norm 8.39D-06
 Iteration    16 internal iteration    16 dimension is    64
 Root      1 not converged, maximum delta is    0.000048363751610
 Root      2 not converged, maximum delta is    0.000194389158100
 Root      3 not converged, maximum delta is    0.005208467851083
 Root      4 not converged, maximum delta is    0.001215356425882
 Eigenvalues at current iteration:
 Root      1 :  -767.396911777257300   Change is   -0.000000061129413
 Root      2 :  -767.250354168087400   Change is   -0.000000558416787
 Root      3 :  -767.210435217788700   Change is   -0.000049037192753
 Root      4 :  -767.206048523418200   Change is   -0.000012644464164
 DEMax= 4.90D-05
 State    1 2nd order lowering   -0.166135763240E-09 norm 4.69D-07
[...]
    20  C    0.000059   0.000002   0.000003   0.000244   0.000000   0.000000
    21  C    0.000020   0.000000   0.000000   0.000006   0.000000   0.000000
    22  H    0.000026   0.000000   0.000000   0.000001   0.000000   0.000000
    23  H    0.000000   0.000000   0.000000  -0.000001   0.000000   0.000000
    24  C   -0.000253  -0.000006  -0.000001   0.000014   0.000002   0.000000
    25  H    0.000138   0.000009   0.000000  -0.000002  -0.000001   0.000000
    26  H   -0.000001   0.000000   0.000000   0.000000   0.000000   0.000000
    27  C    0.000027  -0.000006  -0.000004  -0.000008  -0.000030   0.000000
    28  C   -0.000004  -0.000008   0.000027  -0.000006  -0.000795   0.000051
    29  O   -0.000005  -0.000006   0.000000   0.000000   0.000030  -0.000003
    30  O    0.000000   0.000000  -0.000005  -0.000006   0.000000   0.000000
    31  H    0.000000   0.000001   0.000026   0.000000  -0.002550   0.002656
    32  H    0.000000  -0.000001   0.000000   0.000000   0.004168  -0.000031
    33  H    0.000000   0.000000  -0.000001   0.000000  -0.000186  -0.000028
    34  H    0.000000  -0.000002   0.000138   0.000009   0.002135   0.000131
    35  H   -0.000002   0.000000   0.000000  -0.000052   0.000000   0.000000
    36  H    0.000009   0.000000   0.000006   0.001073   0.000000   0.000000
    37  H   -0.000001   0.000002  -0.000002   0.001191   0.000000   0.000000
    38  H    0.003012  -0.000007   0.000002  -0.000003   0.000000   0.000000
             13         14         15         16         17         18
     1  C   -0.000001   0.000004   0.000000  -0.000001   0.000001   0.000066
     2  C   -0.000018   0.000145  -0.000001  -0.000016  -0.000003   0.000039
     3  C   -0.002453  -0.005865   0.000048   0.001346   0.000271   0.000199
     4  C   -0.044146  -0.050490   0.005391  -0.004813  -0.001405  -0.003341
     5  C    0.001302  -0.000308  -0.000055   0.000401   0.000478  -0.004074
     6  C   -0.000106  -0.000084   0.000001  -0.000010   0.000018  -0.000634
     7  H   -0.000002   0.000003   0.000000   0.000006   0.000000  -0.000001
     8  H    0.001191   0.000244  -0.000052   0.001073   0.000006   0.000014
     9  H   -0.000001   0.000059  -0.000002   0.000009   0.000020  -0.000253
    10  H    0.000002   0.000002   0.000000   0.000000   0.000000  -0.000006
    11  C    0.406875   0.326232  -0.042738  -0.041369  -0.046650   0.000245
    12  H   -0.026866  -0.039084  -0.001105   0.003806  -0.002612  -0.000012
    13  H    0.535384  -0.044103  -0.004540  -0.000702   0.003775  -0.000068
    14  C   -0.044103   5.122477   0.403246   0.398474   0.338963  -0.044796
    15  H   -0.004540   0.403246   0.553830  -0.029028  -0.042718   0.004186
    16  H   -0.000702   0.398474  -0.029028   0.523587  -0.036536  -0.003588
    17  C    0.003775   0.338963  -0.042718  -0.036536   5.077813   0.324854
    18  C   -0.000068  -0.044796   0.004186  -0.003588   0.324854   5.205920
    19  C    0.000000   0.000000   0.000000   0.000000   0.000000   0.000002
    20  C    0.000000   0.000000   0.000000   0.000000   0.000000  -0.000003
    21  C    0.000000   0.000000   0.000000   0.000000   0.000000  -0.000042
    22  H    0.000000   0.000000   0.000000   0.000000   0.000000   0.000001
    23  H    0.000000   0.000000   0.000000   0.000000   0.000000  -0.000003
    24  C    0.000000  -0.000003   0.000000  -0.000005  -0.000042   0.005015
    25  H    0.000000  -0.000002   0.000000   0.000012  -0.000009   0.000044
    26  H    0.000000   0.000000   0.000000   0.000000  -0.000001  -0.000090
    27  C    0.000000  -0.000197   0.000003   0.000066   0.003141  -0.078455
    28  C   -0.000011  -0.000228   0.000005   0.000937  -0.049684   0.320862
    29  O   -0.000001  -0.002035   0.000037   0.002998   0.002250  -0.057479
    30  O    0.000000   0.000000   0.000000  -0.000001   0.000141   0.008125
    31  H   -0.000108  -0.041356  -0.003912   0.004211   0.404000  -0.045789
    32  H   -0.000087  -0.041682  -0.003496  -0.003036   0.404071  -0.039085
    33  H    0.000003   0.003779  -0.000064  -0.000088  -0.037282   0.396450
    34  H    0.000007  -0.002707  -0.000100   0.000072  -0.031374   0.394749
    35  H    0.000000   0.000000   0.000000   0.000000   0.000000   0.000000
    36  H    0.000000   0.000000   0.000000   0.000000   0.000000  -0.000005
    37  H    0.000000   0.000000   0.000000   0.000000   0.000000   0.000000
    38  H    0.000000   0.000000   0.000000   0.000000   0.000000   0.000000
             19         20         21         22         23         24
     1  C    0.324514  -0.050490  -0.001405   0.000094  -0.000196  -0.003341
     2  C   -0.038468  -0.000308   0.000478   0.000046  -0.000012  -0.004074
     3  C    0.003626  -0.000084   0.000018   0.000000   0.000000  -0.000634
     4  C    0.000312   0.000004   0.000001   0.000000   0.000000   0.000066
     5  C    0.002587   0.000145  -0.000003   0.000000   0.000001   0.000039
     6  C   -0.050394  -0.005865   0.000271   0.000005  -0.000018   0.000199
     7  H   -0.002995   0.000059   0.000020   0.000026   0.000000  -0.000253
     8  H   -0.000117   0.000002   0.000000   0.000000   0.000000  -0.000006
     9  H   -0.000117   0.000003   0.000000   0.000000   0.000000  -0.000001
    10  H   -0.002079   0.000244   0.000006   0.000001  -0.000001   0.000014
    11  C    0.000002   0.000000   0.000000   0.000000   0.000000   0.000002
    12  H    0.000000   0.000000   0.000000   0.000000   0.000000   0.000000
    13  H    0.000000   0.000000   0.000000   0.000000   0.000000   0.000000
    14  C    0.000000   0.000000   0.000000   0.000000   0.000000  -0.000003
    15  H    0.000000   0.000000   0.000000   0.000000   0.000000   0.000000
    16  H    0.000000   0.000000   0.000000   0.000000   0.000000  -0.000005
    17  C    0.000000   0.000000   0.000000   0.000000   0.000000  -0.000042
    18  C    0.000002  -0.000003  -0.000042   0.000001  -0.000003   0.005015
    19  C    5.097044   0.326232  -0.046650  -0.002550   0.004168   0.000245
    20  C    0.326232   5.122477   0.338963  -0.041356  -0.041682  -0.044796
    21  C   -0.046650   0.338963   5.077813   0.404000   0.404071   0.324854
    22  H   -0.002550  -0.041356   0.404000   0.550998  -0.028854  -0.045789
    23  H    0.004168  -0.041682   0.404071  -0.028854   0.535593  -0.039085
    24  C    0.000245  -0.044796   0.324854  -0.045789  -0.039085   5.205920
    25  H    0.002135  -0.002707  -0.031374  -0.003090   0.003903   0.394749
    26  H   -0.000186   0.003779  -0.037282  -0.002945  -0.003647   0.396450
    27  C   -0.000795  -0.000228  -0.049684   0.004777  -0.004478   0.320862
    28  C   -0.000030  -0.000197   0.003141  -0.000028  -0.000016  -0.078455
    29  O    0.000000   0.000000   0.000141  -0.000001  -0.000006   0.008125
    30  O    0.000030  -0.002035   0.002250   0.000039   0.002317  -0.057479
    31  H    0.000000   0.000000   0.000000   0.000000   0.000000   0.000001
    32  H    0.000000   0.000000   0.000000   0.000000   0.000000  -0.000003
    33  H    0.000000   0.000000  -0.000001   0.000000   0.000000  -0.000090
    34  H   -0.000001  -0.000002  -0.000009   0.000000   0.000001   0.000044
    35  H   -0.042738   0.403246  -0.042718  -0.003912  -0.003496   0.004186
    36  H   -0.041369   0.398474  -0.036536   0.004211  -0.003036  -0.003588
    37  H    0.406875  -0.044103   0.003775  -0.000108  -0.000087  -0.000068
    38  H    0.402266  -0.039084  -0.002612   0.002656  -0.000031  -0.000012
             25         26         27         28         29         30
     1  C   -0.002854   0.000228  -0.000022   0.000100  -0.000002  -0.000307
     2  C    0.002042   0.000128   0.000239  -0.000221  -0.000235  -0.000011
     3  C    0.000687   0.000001  -0.000225   0.000559   0.000270   0.000011
     4  C    0.000004  -0.000003   0.000100  -0.000022  -0.000307  -0.000002
     5  C   -0.000067  -0.000002  -0.000221   0.000239  -0.000011  -0.000235
     6  C   -0.000260   0.000005   0.000559  -0.000225   0.000011   0.000270
     7  H    0.000138  -0.000001   0.000027  -0.000004  -0.000005   0.000000
     8  H    0.000009   0.000000  -0.000006  -0.000008  -0.000006   0.000000
     9  H    0.000000   0.000000  -0.000004   0.000027   0.000000  -0.000005
    10  H   -0.000002   0.000000  -0.000008  -0.000006   0.000000  -0.000006
    11  C   -0.000001   0.000000  -0.000030  -0.000795   0.000030   0.000000
    12  H    0.000000   0.000000   0.000000   0.000051  -0.000003   0.000000
    13  H    0.000000   0.000000   0.000000  -0.000011  -0.000001   0.000000
    14  C   -0.000002   0.000000  -0.000197  -0.000228  -0.002035   0.000000
    15  H    0.000000   0.000000   0.000003   0.000005   0.000037   0.000000
    16  H    0.000012   0.000000   0.000066   0.000937   0.002998  -0.000001
    17  C   -0.000009  -0.000001   0.003141  -0.049684   0.002250   0.000141
    18  C    0.000044  -0.000090  -0.078455   0.320862  -0.057479   0.008125
    19  C    0.002135  -0.000186  -0.000795  -0.000030   0.000000   0.000030
    20  C   -0.002707   0.003779  -0.000228  -0.000197   0.000000  -0.002035
    21  C   -0.031374  -0.037282  -0.049684   0.003141   0.000141   0.002250
    22  H   -0.003090  -0.002945   0.004777  -0.000028  -0.000001   0.000039
    23  H    0.003903  -0.003647  -0.004478  -0.000016  -0.000006   0.002317
    24  C    0.394749   0.396450   0.320862  -0.078455   0.008125  -0.057479
    25  H    0.502882  -0.029844  -0.041085   0.000074   0.000657   0.002156
    26  H   -0.029844   0.525837  -0.042642  -0.002476   0.001047   0.001179
    27  C   -0.041085  -0.042642   4.894104   0.420758  -0.062642   0.333439
    28  C    0.000074  -0.002476   0.420758   4.894104   0.333439  -0.062642
    29  O    0.000657   0.001047  -0.062642   0.333439   8.115330   0.001876
    30  O    0.002156   0.001179   0.333439  -0.062642   0.001876   8.115331
    31  H    0.000000   0.000000  -0.000028   0.004777   0.000039  -0.000001
    32  H    0.000001   0.000000  -0.000016  -0.004478   0.002317  -0.000006
    33  H   -0.000010   0.000008  -0.002476  -0.042642   0.001179   0.001047
    34  H    0.000002  -0.000010   0.000074  -0.041085   0.002156   0.000657
    35  H   -0.000100  -0.000064   0.000005   0.000003   0.000000   0.000037
    36  H    0.000072  -0.000088   0.000937   0.000066  -0.000001   0.002998
    37  H    0.000007   0.000003  -0.000011   0.000000   0.000000  -0.000001
    38  H    0.000131  -0.000028   0.000051   0.000000   0.000000  -0.000003
             31         32         33         34         35         36
     1  C    0.000000   0.000000  -0.000003   0.000004   0.005391  -0.004813
     2  C    0.000000   0.000001  -0.000002  -0.000067  -0.000055   0.000401
     3  C    0.000005  -0.000018   0.000005  -0.000260   0.000001  -0.000010
     4  C    0.000094  -0.000196   0.000228  -0.002854   0.000000  -0.000001
     5  C    0.000046  -0.000012   0.000128   0.002042  -0.000001  -0.000016
     6  C    0.000000   0.000000   0.000001   0.000687   0.000048   0.001346
     7  H    0.000000   0.000000   0.000000   0.000000  -0.000002   0.000009
     8  H    0.000001  -0.000001   0.000000  -0.000002   0.000000   0.000000
     9  H    0.000026   0.000000  -0.000001   0.000138   0.000000   0.000006
    10  H    0.000000   0.000000   0.000000   0.000009  -0.000052   0.001073
    11  C   -0.002550   0.004168  -0.000186   0.002135   0.000000   0.000000
    12  H    0.002656  -0.000031  -0.000028   0.000131   0.000000   0.000000
    13  H   -0.000108  -0.000087   0.000003   0.000007   0.000000   0.000000
    14  C   -0.041356  -0.041682   0.003779  -0.002707   0.000000   0.000000
    15  H   -0.003912  -0.003496  -0.000064  -0.000100   0.000000   0.000000
    16  H    0.004211  -0.003036  -0.000088   0.000072   0.000000   0.000000
    17  C    0.404000   0.404071  -0.037282  -0.031374   0.000000   0.000000
    18  C   -0.045789  -0.039085   0.396450   0.394749   0.000000  -0.000005
    19  C    0.000000   0.000000   0.000000  -0.000001  -0.042738  -0.041369
    20  C    0.000000   0.000000   0.000000  -0.000002   0.403246   0.398474
    21  C    0.000000   0.000000  -0.000001  -0.000009  -0.042718  -0.036536
    22  H    0.000000   0.000000   0.000000   0.000000  -0.003912   0.004211
    23  H    0.000000   0.000000   0.000000   0.000001  -0.003496  -0.003036
    24  C    0.000001  -0.000003  -0.000090   0.000044   0.004186  -0.003588
    25  H    0.000000   0.000001  -0.000010   0.000002  -0.000100   0.000072
    26  H    0.000000   0.000000   0.000008  -0.000010  -0.000064  -0.000088
    27  C   -0.000028  -0.000016  -0.002476   0.000074   0.000005   0.000937
    28  C    0.004777  -0.004478  -0.042642  -0.041085   0.000003   0.000066
    29  O    0.000039   0.002317   0.001179   0.002156   0.000000  -0.000001
    30  O   -0.000001  -0.000006   0.001047   0.000657   0.000037   0.002998
    31  H    0.550998  -0.028854  -0.002945  -0.003090   0.000000   0.000000
    32  H   -0.028854   0.535593  -0.003647   0.003903   0.000000   0.000000
    33  H   -0.002945  -0.003647   0.525837  -0.029844   0.000000   0.000000
    34  H   -0.003090   0.003903  -0.029844   0.502882   0.000000   0.000012
    35  H    0.000000   0.000000   0.000000   0.000000   0.553830  -0.029028
    36  H    0.000000   0.000000   0.000000   0.000012  -0.029028   0.523587
    37  H    0.000000   0.000000   0.000000   0.000000  -0.004540  -0.000702
    38  H    0.000000   0.000000   0.000000   0.000000  -0.001105   0.003806
             37         38
     1  C   -0.044146  -0.049217
     2  C    0.001302  -0.001084
     3  C   -0.000106   0.000290
     4  C   -0.000001  -0.000013
     5  C   -0.000018  -0.000051
     6  C   -0.002453   0.003414
     7  H   -0.000001   0.003012
     8  H    0.000002  -0.000007
     9  H   -0.000002   0.000002
    10  H    0.001191  -0.000003
    11  C    0.000000   0.000000
    12  H    0.000000   0.000000
    13  H    0.000000   0.000000
    14  C    0.000000   0.000000
    15  H    0.000000   0.000000
    16  H    0.000000   0.000000
    17  C    0.000000   0.000000
    18  C    0.000000   0.000000
    19  C    0.406875   0.402266
    20  C   -0.044103  -0.039084
    21  C    0.003775  -0.002612
    22  H   -0.000108   0.002656
    23  H   -0.000087  -0.000031
    24  C   -0.000068  -0.000012
    25  H    0.000007   0.000131
    26  H    0.000003  -0.000028
    27  C   -0.000011   0.000051
    28  C    0.000000   0.000000
    29  O    0.000000   0.000000
    30  O   -0.000001  -0.000003
    31  H    0.000000   0.000000
    32  H    0.000000   0.000000
    33  H    0.000000   0.000000
    34  H    0.000000   0.000000
    35  H   -0.004540  -0.001105
    36  H   -0.000702   0.003806
    37  H    0.535384  -0.026866
    38  H   -0.026866   0.537648
 Mulliken atomic charges:
              1
     1  C    0.029937
     2  C   -0.228204
     3  C   -0.203647
     4  C    0.029937
     5  C   -0.228204
     6  C   -0.203647
     7  H    0.193393
     8  H    0.196864
     9  H    0.193393
    10  H    0.196864
    11  C   -0.341550
    12  H    0.166842
    13  H    0.174673
    14  C   -0.320688
    15  H    0.161065
    16  H    0.182194
    17  C   -0.311489
    18  C   -0.383047
    19  C   -0.341550
    20  C   -0.320688
    21  C   -0.311489
    22  H    0.161779
    23  H    0.174593
    24  C   -0.383047
    25  H    0.201699
    26  H    0.190643
    27  C    0.304113
    28  C    0.304113
    29  O   -0.349170
    30  O   -0.349170
    31  H    0.161779
    32  H    0.174593
    33  H    0.190643
    34  H    0.201699
    35  H    0.161065
    36  H    0.182194
    37  H    0.174673
    38  H    0.166842
 Sum of Mulliken atomic charges =   0.00000
 Mulliken charges with hydrogens summed into heavy atoms:
              1
     1  C    0.029937
     2  C   -0.034811
     3  C   -0.006783
     4  C    0.029937
     5  C   -0.034811
     6  C   -0.006783
    11  C   -0.000036
    14  C    0.022572
    17  C    0.024883
    18  C    0.009295
    19  C   -0.000036
    20  C    0.022572
    21  C    0.024883
    24  C    0.009295
    27  C    0.304113
    28  C    0.304113
    29  O   -0.349170
    30  O   -0.349170
 Sum of Mulliken charges with hydrogens summed into heavy atoms =   0.00000
 Electronic spatial extent (au):  <R**2>=           4041.4472
 Charge=              0.0000 electrons
 Dipole moment (field-independent basis, Debye):
    X=              0.0000    Y=              0.0000    Z=             -0.6732  Tot=              0.6732
 Quadrupole moment (field-independent basis, Debye-Ang):
   XX=           -103.1622   YY=           -105.1670   ZZ=           -113.6264
   XY=             -5.3325   XZ=              0.0000   YZ=              0.0000
 Traceless Quadrupole moment (field-independent basis, Debye-Ang):
   XX=              4.1563   YY=              2.1515   ZZ=             -6.3078
   XY=             -5.3325   XZ=              0.0000   YZ=              0.0000
 Octapole moment (field-independent basis, Debye-Ang**2):
  XXX=              0.0000  YYY=              0.0000  ZZZ=             34.0931  XYY=              0.0000
  XXY=              0.0000  XXZ=              0.1802  XZZ=              0.0000  YZZ=              0.0000
  YYZ=             -7.3106  XYZ=            -10.4407
 Hexadecapole moment (field-independent basis, Debye-Ang**3):
 XXXX=          -1148.5585 YYYY=          -2598.4500 ZZZZ=          -1732.8480 XXXY=            515.1031
 XXXZ=              0.0000 YYYX=            505.0228 YYYZ=              0.0000 ZZZX=              0.0000
 ZZZY=              0.0000 XXYY=           -633.1366 XXZZ=           -474.2320 YYZZ=           -722.3116
 XXYZ=              0.0000 YYXZ=              0.0000 ZZXY=            159.0614
 N-N= 1.385408852613D+03 E-N=-4.563767334736D+03  KE= 7.671440488271D+02

 Test job not archived.
 1\1\GINC-GGROENH\SP\CASSCF\6-31G(d)\C16H20O2\GGROENH\04-Nov-2011\0\\# 
 casscf(14,12,nroot=4,stateaverage)/6-31g(d) geom=(check,connectivity) 
 test guess=read iop(5/7=512)\\Title Card Required\\0,1\C,0,0.0571933,-
 1.40958699,-1.68474899\C,0,1.21463925,-0.64423743,-1.75183502\C,0,1.15
 968496,0.73915364,-1.74589404\C,0,-0.0571933,1.40958699,-1.68474899\C,
 0,-1.21463925,0.64423743,-1.75183502\C,0,-1.15968496,-0.73915364,-1.74
 589404\H,0,2.17488764,-1.13106861,-1.75604503\H,0,2.07872365,1.2991695
 ,-1.74283806\H,0,-2.17488764,1.13106861,-1.75604503\H,0,-2.07872365,-1
 .2991695,-1.74283806\C,0,-0.10011535,2.9093672,-1.47069405\H,0,-1.1224
 4692,3.26523847,-1.56641804\H,0,0.46754224,3.39817349,-2.25839606\C,0,
 0.48895622,3.36120349,-0.11657806\H,0,0.69652954,4.42604223,-0.1883270
 8\H,0,1.44746263,2.87944631,0.03503893\C,0,-0.37914499,3.17626858,1.14
 083395\C,0,-0.86967372,1.76846519,1.50292098\C,0,0.10011535,-2.9093672
 ,-1.47069405\C,0,-0.48895622,-3.36120349,-0.11657806\C,0,0.37914499,-3
 .17626858,1.14083395\H,0,1.26356838,-3.80261045,1.04877302\H,0,-0.1852
 7832,-3.56947565,1.98043704\C,0,0.86967372,-1.76846519,1.50292098\H,0,
 1.56738637,-1.38228783,0.77536699\H,0,1.43081085,-1.81876264,2.4347079
 9\C,0,-0.21653482,-0.74058961,1.726296\C,0,0.21653482,0.74058961,1.726
 296\O,0,1.35553534,1.00615445,1.95448696\O,0,-1.35553534,-1.00615445,1
 .95448696\H,0,-1.26356838,3.80261045,1.04877302\H,0,0.18527832,3.56947
 565,1.98043704\H,0,-1.43081085,1.81876264,2.43470799\H,0,-1.56738637,1
 .38228783,0.77536699\H,0,-0.69652954,-4.42604223,-0.18832708\H,0,-1.44
 746263,-2.87944631,0.03503893\H,0,-0.46754224,-3.39817349,-2.25839606\
 H,0,1.12244692,-3.26523847,-1.56641804\\Version=EM64L-G09RevA.02\State
 =1-A\HF=-767.207328\RMSD=0.000e+00\Dipole=0.,0.,-0.2648754\Quadrupole=
 -0.4410114,5.1307319,-4.6897205,-2.9175854,0.,0.\PG=C02 [X(C16H20O2)]\
 \@


 HOW IS IT THAT THE SKY FEEDS THE STARS?

                           -- LUCRETIUS
 Job cpu time:  0 days  8 hours 33 minutes  7.0 seconds.
 File lengths (MBytes):  RWF=   2085 Int=      0 D2E=      0 Chk=      4 Scr=      1
 Normal termination of Gaussian 09 at Fri Nov  4 00:09:25 2011.
